LAMMPS data file for HPT

150 atoms
149 bonds
274 angles
462 dihedrals
0 impropers

5 atom types
5 bond types
8 angle types
10 dihedral types

-57.9305108 18.4796062 xlo xhi
-0.2838393 3.4695812 ylo yhi
-1.7969455 0.9734418 zlo zhi

Masses

1 16.0
2 12.01
3 16.0
4 1.008
5 1.008

Pair Coeffs

1 0.17000000010548533 3.0000123432245225
2 0.10939999991572773 3.399669508450741
3 0.2104000002486992 3.066473387458142
4 0.0 0.0
5 0.01570000009846142 2.4713530426421655

Bond Coeffs

1 330.6 1.0969
2 300.9 1.5375
3 371.4 0.973
4 316.7 1.4233
5 308.6 1.4316

Angle Coeffs

1 46.39 109.56004706934303
2 39.24 108.46004659790978
3 68.0 107.97004621602035
4 50.93 110.260047369346
5 47.38 107.26004608361897
6 67.47 110.19004739664149
7 50.8 109.780046819855
8 62.7 112.48004797700933

Dihedral Coeffs

1 0.155555556 1 3
2 0.25 1 1
3 0.0 1 3
4 0.1 -1 2
5 0.383 1 3
6 0.383333333 1 3
7 0.166666667 1 3
8 0.16 1 3
9 1.175 1 2
10 0.144 1 3

Atoms

1 0 1 -0.4314139998792688 3.5400032 1.4197788 1.9e-06
2 0 2 0.13045600006585337 4.7157111 0.6049298 -0.0849747
3 0 2 0.12945600006585337 5.9025896 1.5587641 0.0159982
4 0 1 -0.42941499975304986 7.0992254 0.7729299 -0.0669693
5 0 2 0.12945600006585337 8.2931763 1.5628344 0.0160241
6 0 2 0.12945600006585337 9.4739079 0.6029883 -0.0849375
7 0 1 -0.42941499975304986 10.6685389 1.3936816 -0.0019556
8 0 2 0.12945600006585337 11.8644707 0.6066743 -0.083947
9 0 2 0.13045600006585337 13.0516913 1.5617827 0.0160739
10 0 1 -0.4314139998792688 14.2272989 0.7469995 -0.0708988
11 0 2 0.12945600006585337 15.4593272 1.4769557 0.0041087
12 0 2 0.12745500019207234 16.5681853 0.4329986 -0.1068703
13 0 3 -0.602541001959138 17.8245375 1.0851031 -0.0418484
14 0 4 0.4051739999890244 18.4796062 0.3779654 -0.1188561
15 0 5 0.03571500002743891 16.4801862 -0.0988746 -1.0576678
16 0 5 0.03571500002743891 16.4841734 -0.2838393 0.713943
17 0 5 0.04271799997804888 15.519378 2.1902418 -0.823208
18 0 5 0.04271799997804888 15.522325 2.0018366 0.9619017
19 0 5 0.04271799997804888 13.0357209 2.2790123 -0.8111816
20 0 5 0.04271799997804888 13.0366919 2.0909875 0.9734418
21 0 5 0.04246799997804887 11.8894441 -0.1101229 0.7408118
22 0 5 0.04246799997804887 11.8894555 0.0756039 -1.0400725
23 0 5 0.04271799997804888 9.4478815 -0.1139465 0.7409941
24 0 5 0.04271799997804888 9.4479004 0.0731654 -1.040584
25 0 5 0.04271799997804888 8.3192104 2.2808321 -0.8089835
26 0 5 0.04271799997804888 8.3191901 2.0927103 0.9727847
27 0 5 0.04246799997804887 5.8786011 2.2780198 -0.8093023
28 0 5 0.04246799997804887 5.8776063 2.0898396 0.9721209
29 0 5 0.04271799997804888 4.7316933 -0.1110651 0.7420271
30 0 5 0.04271799997804888 4.7326911 0.0761638 -1.0425519
31 0 2 0.12945600006585337 2.3076788 0.6906384 -0.0780166
32 0 5 0.04271799997804888 2.2456299 -0.022569 0.7492204
33 0 5 0.04271799997804888 2.2476691 0.1656707 -1.0359538
34 0 2 0.1295130000054878 1.1522395 1.701185 0.0095147
35 0 5 0.04273699999451221 1.2234075 2.4116099 -0.8193807
36 0 5 0.04273699999451221 1.210621 2.2430276 0.9581107
37 0 1 -0.4312240002634135 -0.0800849 0.9720448 -0.0685056
38 0 2 0.13051399987926882 -1.2553366 1.7884798 0.0070344
39 0 5 0.04273699999451221 -1.2657825 2.5010213 -0.8243502
40 0 5 0.04273699999451221 -1.2753302 2.3231075 0.961293
41 0 2 0.1295130000054878 -2.4429411 0.8340047 -0.0944644
42 0 5 0.04248699999451221 -2.4234905 0.1218705 0.7344719
43 0 5 0.04248699999451221 -2.4129641 0.2975088 -1.0474122
44 0 1 -0.42922600001097555 -3.6385165 1.6226563 -0.0238662
45 0 2 0.1295130000054878 -4.8334605 0.8326976 -0.1093
46 0 5 0.04273699999451221 -4.8650128 0.1204753 0.7205071
47 0 5 0.04273699999451221 -4.8544729 0.2975061 -1.0620737
48 0 2 0.1295130000054878 -6.0137679 1.7942774 -0.0206222
49 0 5 0.04273699999451221 -5.9822201 2.5075724 -0.8495076
50 0 5 0.04273699999451221 -5.9927665 2.3295362 0.9332609
51 0 1 -0.42922600001097555 -7.208031 1.0051067 -0.1060681
52 0 2 0.1295130000054878 -8.4043172 1.7925914 -0.0344913
53 0 5 0.04248699999451221 -8.422765 2.5071752 -0.863982
54 0 5 0.04248699999451221 -8.4342996 2.3290967 0.9184511
55 0 2 0.13051399987926882 -9.5915727 0.8393847 -0.1369472
56 0 5 0.04273699999451221 -9.5811306 0.1280741 0.694175
57 0 5 0.04273699999451221 -9.569598 0.3051743 -1.0913959
58 0 1 -0.4312240002634135 -10.7669132 1.6558743 -0.0634042
59 0 2 0.1295130000054878 -11.9995145 0.9275316 -0.1444407
60 0 5 0.04273699999451221 -12.0670903 0.2190861 0.6864471
61 0 5 0.04273699999451221 -12.0545133 0.3972056 -1.0997236
62 0 2 0.1295130000054878 -13.154401 1.9397087 -0.0693359
63 0 5 0.04273699999451221 -13.0776996 2.6453533 -0.9018133
64 0 5 0.04273699999451221 -13.1009601 2.4868602 0.8764999
65 0 1 -0.4312240002634135 -14.3870023 1.2113662 -0.1503742
66 0 2 0.13051399987926882 -15.5618313 2.0293867 -0.0862763
67 0 5 0.04273699999451221 -15.5667257 2.7372151 -0.9217282
68 0 5 0.04273699999451221 -15.5868043 2.5694336 0.8648082
69 0 2 0.1295130000054878 -16.7498093 1.0755354 -0.1892571
70 0 5 0.04248699999451221 -16.7358957 0.3680915 0.6437966
71 0 5 0.04248699999451221 -16.7148625 0.5336178 -1.1389623
72 0 1 -0.42922600001097555 -17.9449615 1.8657653 -0.1300615
73 0 2 0.1295130000054878 -19.1402027 1.0765259 -0.2179518
74 0 5 0.04273699999451221 -19.1772962 0.3690497 0.6156774
75 0 5 0.04273699999451221 -19.1562441 0.5359646 -1.167786
76 0 2 0.1295130000054878 -20.3200138 2.0397684 -0.1415676
77 0 5 0.04273699999451221 -20.2829291 2.7483226 -0.974281
78 0 5 0.04273699999451221 -20.3039898 2.5804033 0.8093757
79 0 1 -0.42922600001097555 -21.5145733 1.2513163 -0.2294705
80 0 2 0.1295130000054878 -22.7104431 2.0403856 -0.1692938
81 0 5 0.04248699999451221 -22.7233482 2.7502749 -1.0029098
82 0 5 0.04248699999451221 -22.7453952 2.5823125 0.780406
83 0 2 0.13051399987926882 -23.8980653 1.0877968 -0.2732368
84 0 5 0.04273699999451221 -23.8931718 0.3811979 0.5619458
85 0 5 0.04273699999451221 -23.8711096 0.5481642 -1.2245023
86 0 1 -0.4312240002634135 -25.0729713 1.9058607 -0.2111367
87 0 2 0.1295130000054878 -26.3058313 1.1782989 -0.2951971
88 0 5 0.04273699999451221 -26.37895 0.4746413 0.5392822
89 0 5 0.04273699999451221 -26.355839 0.6426225 -1.2477653
90 0 2 0.1295130000054878 -27.4600914 2.1920355 -0.2325245
91 0 5 0.04273699999451221 -27.3778408 2.8928741 -1.0685246
92 0 5 0.04273699999451221 -27.4115695 2.7444851 0.7104926
93 0 1 -0.4312240002634135 -28.6929513 1.4644739 -0.3165867
94 0 2 0.13051399987926882 -29.8672894 2.2840145 -0.263937
95 0 5 0.04273699999451221 -29.8666138 2.9871013 -1.1033973
96 0 5 0.04273699999451221 -29.8972178 2.8294675 0.6839139
97 0 2 0.1295130000054878 -31.0556318 1.3307791 -0.3684055
98 0 5 0.04248699999451221 -31.0472741 0.6280541 0.4687067
99 0 5 0.04248699999451221 -31.0157397 0.7834533 -1.3148088
100 0 1 -0.42922600001097555 -32.250293 2.122522 -0.3206186
101 0 2 0.1295130000054878 -33.4458164 1.3339885 -0.4109711
102 0 5 0.04273699999451221 -33.4884684 0.6312854 0.4264208
103 0 5 0.04273699999451221 -33.4569096 0.788069 -1.3578068
104 0 2 0.1295130000054878 -34.6250585 2.2988234 -0.3468867
105 0 5 0.04273699999451221 -34.5824195 3.0026096 -1.1833691
106 0 5 0.04273699999451221 -34.6139891 2.8448227 0.6010575
107 0 1 -0.42922600001097555 -35.8198993 1.5110764 -0.4372523
108 0 2 0.1295130000054878 -37.015285 2.301665 -0.3884819
109 0 5 0.04248699999451221 -37.0226285 3.006831 -1.2261644
110 0 5 0.04248699999451221 -37.0551824 2.849 0.5579158
111 0 2 0.13051399987926882 -38.2032647 1.3496863 -0.4939176
112 0 5 0.04273699999451221 -38.2039384 0.6478274 0.3452663
113 0 5 0.04273699999451221 -38.1713522 0.8046445 -1.4419404
114 0 1 -0.4312240002634135 -39.3776683 2.1692591 -0.4432664
115 0 2 0.1295130000054878 -40.6107685 1.4424612 -0.5303566
116 0 5 0.04273699999451221 -40.6894461 0.7436174 0.3076549
117 0 5 0.04273699999451221 -40.6558065 0.9014451 -1.4801508
118 0 2 0.12945600006585337 -41.7643285 2.4576863 -0.4801209
119 0 5 0.04271799997804888 -41.6765134 3.1536934 -1.3195841
120 0 5 0.04271799997804888 -41.7207038 3.0154227 0.460019
121 0 1 -0.4314139998792688 -42.9974287 1.7308886 -0.5672129
122 0 2 0.13045600006585337 -44.1712082 2.5518841 -0.5260169
123 0 5 0.04271799997804888 -44.1649442 3.2502011 -1.3694261
124 0 5 0.04271799997804888 -44.2060676 3.1027296 0.4185413
125 0 2 0.12945600006585337 -45.3599056 1.5992563 -0.6319785
126 0 5 0.04246799997804887 -45.3571224 0.9012789 0.2091331
127 0 5 0.04246799997804887 -45.315093 1.0465362 -1.5750206
128 0 1 -0.42941499975304986 -46.5540082 2.3924472 -0.5956056
129 0 2 0.12945600006585337 -47.7497989 1.6046058 -0.6884259
130 0 5 0.04271799997804888 -47.798026 0.9067027 0.1526694
131 0 5 0.04271799997804888 -47.7559666 1.0533404 -1.6322042
132 0 2 0.12945600006585337 -48.9283989 2.5709628 -0.6366465
133 0 5 0.04271799997804888 -48.8801889 3.2699543 -1.4768386
134 0 5 0.04271799997804888 -48.9222612 3.1223144 0.3082396
135 0 1 -0.42941499975304986 -50.1235061 1.7839071 -0.7294804
136 0 2 0.12945600006585337 -51.3183401 2.5759501 -0.6921217
137 0 5 0.04246799997804887 -51.3201032 3.2763643 -1.5338116
138 0 5 0.04246799997804887 -51.3631579 3.1286794 0.2509147
139 0 2 0.13045600006585337 -52.5066679 1.6245731 -0.7990557
140 0 5 0.04271799997804888 -52.5129271 0.9274825 0.0440704
141 0 5 0.04271799997804888 -52.469823 1.0741359 -1.7437764
142 0 1 -0.4314139998792688 -53.6805012 2.4455895 -0.7598586
143 0 2 0.12945600006585337 -54.9138234 1.7195387 -0.8499841
144 0 2 0.12745500019207234 -56.0193494 2.7698036 -0.7914037
145 0 3 -0.602541001959138 -57.277199 2.1231013 -0.8778881
146 0 4 0.4051739999890244 -57.9305108 2.8349258 -0.8381572
147 0 5 0.03571500002743891 -55.9092858 3.4695812 -1.6250903
148 0 5 0.03571500002743891 -55.9550815 3.3230609 0.1501971
149 0 5 0.04271799997804888 -54.9980751 1.0255342 -0.0085001
150 0 5 0.04271799997804888 -54.9539132 1.1731935 -1.7969455

Bonds

1 1 31 32
2 1 31 33
3 3 13 14
4 1 12 15
5 1 12 16
6 1 11 17
7 1 11 18
8 1 9 19
9 1 9 20
10 1 8 21
11 1 8 22
12 1 6 23
13 1 6 24
14 1 5 25
15 1 5 26
16 1 3 27
17 1 3 28
18 1 2 29
19 1 2 30
20 1 59 60
21 1 59 61
22 1 55 56
23 1 55 57
24 1 52 53
25 1 52 54
26 1 48 49
27 1 48 50
28 1 45 46
29 1 45 47
30 1 41 42
31 1 41 43
32 1 38 39
33 1 38 40
34 1 34 35
35 1 34 36
36 1 87 88
37 1 87 89
38 1 83 84
39 1 83 85
40 1 80 81
41 1 80 82
42 1 76 77
43 1 76 78
44 1 73 74
45 1 73 75
46 1 69 70
47 1 69 71
48 1 66 67
49 1 66 68
50 1 62 63
51 1 62 64
52 1 115 116
53 1 115 117
54 1 111 112
55 1 111 113
56 1 108 109
57 1 108 110
58 1 104 105
59 1 104 106
60 1 101 102
61 1 101 103
62 1 97 98
63 1 97 99
64 1 94 95
65 1 94 96
66 1 90 91
67 1 90 92
68 3 145 146
69 1 144 147
70 1 144 148
71 1 143 149
72 1 143 150
73 1 139 140
74 1 139 141
75 1 136 137
76 1 136 138
77 1 132 133
78 1 132 134
79 1 129 130
80 1 129 131
81 1 125 126
82 1 125 127
83 1 122 123
84 1 122 124
85 1 118 119
86 1 118 120
87 2 31 34
88 4 12 13
89 2 11 12
90 5 10 11
91 5 9 10
92 2 8 9
93 5 7 8
94 5 6 7
95 2 5 6
96 5 4 5
97 5 3 4
98 2 2 3
99 5 1 2
100 5 1 31
101 2 59 62
102 5 58 59
103 5 55 58
104 2 52 55
105 5 51 52
106 5 48 51
107 2 45 48
108 5 44 45
109 5 41 44
110 2 38 41
111 5 37 38
112 5 34 37
113 2 87 90
114 5 86 87
115 5 83 86
116 2 80 83
117 5 79 80
118 5 76 79
119 2 73 76
120 5 72 73
121 5 69 72
122 2 66 69
123 5 65 66
124 5 62 65
125 2 115 118
126 5 114 115
127 5 111 114
128 2 108 111
129 5 107 108
130 5 104 107
131 2 101 104
132 5 100 101
133 5 97 100
134 2 94 97
135 5 93 94
136 5 90 93
137 4 144 145
138 2 143 144
139 5 142 143
140 5 139 142
141 2 136 139
142 5 135 136
143 5 132 135
144 2 129 132
145 5 128 129
146 5 125 128
147 2 122 125
148 5 121 122
149 5 118 121

Angles

1 1 33 31 34
2 2 32 31 33
3 1 32 31 34
4 1 31 34 35
5 1 31 34 36
6 2 29 2 30
7 2 27 3 28
8 2 25 5 26
9 2 23 6 24
10 2 21 8 22
11 2 19 9 20
12 2 17 11 18
13 2 15 12 16
14 4 13 12 15
15 4 13 12 16
16 1 12 11 17
17 1 12 11 18
18 5 12 13 14
19 1 11 12 15
20 1 11 12 16
21 7 10 9 19
22 7 10 9 20
23 7 10 11 17
24 7 10 11 18
25 1 9 8 21
26 1 9 8 22
27 1 8 9 19
28 1 8 9 20
29 7 7 6 23
30 7 7 6 24
31 7 7 8 21
32 7 7 8 22
33 1 6 5 25
34 1 6 5 26
35 1 5 6 23
36 1 5 6 24
37 7 4 3 27
38 7 4 3 28
39 7 4 5 25
40 7 4 5 26
41 1 3 2 29
42 1 3 2 30
43 1 2 3 27
44 1 2 3 28
45 7 1 2 29
46 7 1 2 30
47 7 1 31 32
48 7 1 31 33
49 1 61 59 62
50 2 60 59 61
51 1 60 59 62
52 1 59 62 63
53 1 59 62 64
54 7 58 59 60
55 7 58 59 61
56 7 57 55 58
57 2 56 55 57
58 7 56 55 58
59 1 54 52 55
60 2 53 52 54
61 1 53 52 55
62 1 52 55 56
63 1 52 55 57
64 7 51 52 53
65 7 51 52 54
66 7 50 48 51
67 2 49 48 50
68 7 49 48 51
69 1 47 45 48
70 2 46 45 47
71 1 46 45 48
72 1 45 48 49
73 1 45 48 50
74 7 44 45 46
75 7 44 45 47
76 7 43 41 44
77 2 42 41 43
78 7 42 41 44
79 1 40 38 41
80 2 39 38 40
81 1 39 38 41
82 1 38 41 42
83 1 38 41 43
84 7 37 38 39
85 7 37 38 40
86 7 36 34 37
87 2 35 34 36
88 7 35 34 37
89 1 89 87 90
90 2 88 87 89
91 1 88 87 90
92 1 87 90 91
93 1 87 90 92
94 7 86 87 88
95 7 86 87 89
96 7 85 83 86
97 2 84 83 85
98 7 84 83 86
99 1 82 80 83
100 2 81 80 82
101 1 81 80 83
102 1 80 83 84
103 1 80 83 85
104 7 79 80 81
105 7 79 80 82
106 7 78 76 79
107 2 77 76 78
108 7 77 76 79
109 1 75 73 76
110 2 74 73 75
111 1 74 73 76
112 1 73 76 77
113 1 73 76 78
114 7 72 73 74
115 7 72 73 75
116 7 71 69 72
117 2 70 69 71
118 7 70 69 72
119 1 68 66 69
120 2 67 66 68
121 1 67 66 69
122 1 66 69 70
123 1 66 69 71
124 7 65 66 67
125 7 65 66 68
126 7 64 62 65
127 2 63 62 64
128 7 63 62 65
129 1 117 115 118
130 2 116 115 117
131 1 116 115 118
132 1 115 118 119
133 1 115 118 120
134 7 114 115 116
135 7 114 115 117
136 7 113 111 114
137 2 112 111 113
138 7 112 111 114
139 1 110 108 111
140 2 109 108 110
141 1 109 108 111
142 1 108 111 112
143 1 108 111 113
144 7 107 108 109
145 7 107 108 110
146 7 106 104 107
147 2 105 104 106
148 7 105 104 107
149 1 103 101 104
150 2 102 101 103
151 1 102 101 104
152 1 101 104 105
153 1 101 104 106
154 7 100 101 102
155 7 100 101 103
156 7 99 97 100
157 2 98 97 99
158 7 98 97 100
159 1 96 94 97
160 2 95 94 96
161 1 95 94 97
162 1 94 97 98
163 1 94 97 99
164 7 93 94 95
165 7 93 94 96
166 7 92 90 93
167 2 91 90 92
168 7 91 90 93
169 2 149 143 150
170 2 147 144 148
171 4 145 144 147
172 4 145 144 148
173 1 144 143 149
174 1 144 143 150
175 5 144 145 146
176 1 143 144 147
177 1 143 144 148
178 7 142 143 149
179 7 142 143 150
180 7 141 139 142
181 2 140 139 141
182 7 140 139 142
183 1 138 136 139
184 2 137 136 138
185 1 137 136 139
186 1 136 139 140
187 1 136 139 141
188 7 135 136 137
189 7 135 136 138
190 7 134 132 135
191 2 133 132 134
192 7 133 132 135
193 1 131 129 132
194 2 130 129 131
195 1 130 129 132
196 1 129 132 133
197 1 129 132 134
198 7 128 129 130
199 7 128 129 131
200 7 127 125 128
201 2 126 125 127
202 7 126 125 128
203 1 124 122 125
204 2 123 122 124
205 1 123 122 125
206 1 122 125 126
207 1 122 125 127
208 7 121 122 123
209 7 121 122 124
210 7 120 118 121
211 2 119 118 120
212 7 119 118 121
213 3 31 34 37
214 6 11 12 13
215 3 10 11 12
216 8 9 10 11
217 3 8 9 10
218 3 7 8 9
219 8 6 7 8
220 3 5 6 7
221 3 4 5 6
222 8 3 4 5
223 8 2 1 31
224 3 2 3 4
225 3 1 2 3
226 3 1 31 34
227 3 59 62 65
228 3 58 59 62
229 8 55 58 59
230 3 52 55 58
231 3 51 52 55
232 8 48 51 52
233 3 45 48 51
234 3 44 45 48
235 8 41 44 45
236 3 38 41 44
237 3 37 38 41
238 8 34 37 38
239 3 87 90 93
240 3 86 87 90
241 8 83 86 87
242 3 80 83 86
243 3 79 80 83
244 8 76 79 80
245 3 73 76 79
246 3 72 73 76
247 8 69 72 73
248 3 66 69 72
249 3 65 66 69
250 8 62 65 66
251 3 115 118 121
252 3 114 115 118
253 8 111 114 115
254 3 108 111 114
255 3 107 108 111
256 8 104 107 108
257 3 101 104 107
258 3 100 101 104
259 8 97 100 101
260 3 94 97 100
261 3 93 94 97
262 8 90 93 94
263 6 143 144 145
264 3 142 143 144
265 8 139 142 143
266 3 136 139 142
267 3 135 136 139
268 8 132 135 136
269 3 129 132 135
270 3 128 129 132
271 8 125 128 129
272 3 122 125 128
273 3 121 122 125
274 8 118 121 122

Dihedrals

1 1 33 31 34 35
2 1 33 31 34 36
3 2 33 31 34 37
4 3 33 31 34 37
5 1 32 31 34 35
6 1 32 31 34 36
7 2 32 31 34 37
8 3 32 31 34 37
9 6 31 1 2 30
10 6 31 1 2 29
11 1 28 3 2 29
12 1 28 3 2 30
13 1 27 3 2 29
14 1 27 3 2 30
15 1 24 6 5 25
16 1 24 6 5 26
17 1 23 6 5 25
18 1 23 6 5 26
19 1 20 9 8 21
20 1 20 9 8 22
21 1 19 9 8 21
22 1 19 9 8 22
23 1 16 12 11 17
24 1 16 12 11 18
25 1 15 12 11 17
26 1 15 12 11 18
27 7 14 13 12 15
28 7 14 13 12 16
29 2 13 12 11 17
30 3 13 12 11 17
31 2 13 12 11 18
32 3 13 12 11 18
33 6 11 10 9 19
34 6 11 10 9 20
35 2 11 12 13 14
36 8 11 12 13 14
37 2 10 9 8 21
38 3 10 9 8 21
39 2 10 9 8 22
40 3 10 9 8 22
41 2 10 11 12 15
42 3 10 11 12 15
43 2 10 11 12 16
44 3 10 11 12 16
45 6 9 10 11 17
46 6 9 10 11 18
47 6 8 7 6 23
48 6 8 7 6 24
49 2 7 6 5 25
50 3 7 6 5 25
51 2 7 6 5 26
52 3 7 6 5 26
53 2 7 8 9 19
54 3 7 8 9 19
55 2 7 8 9 20
56 3 7 8 9 20
57 6 6 7 8 21
58 6 6 7 8 22
59 6 5 4 3 27
60 6 5 4 3 28
61 2 4 3 2 29
62 3 4 3 2 29
63 2 4 3 2 30
64 3 4 3 2 30
65 2 4 5 6 23
66 3 4 5 6 23
67 2 4 5 6 24
68 3 4 5 6 24
69 6 3 4 5 25
70 6 3 4 5 26
71 6 2 1 31 32
72 6 2 1 31 33
73 2 1 2 3 27
74 3 1 2 3 27
75 2 1 2 3 28
76 3 1 2 3 28
77 2 1 31 34 35
78 3 1 31 34 35
79 2 1 31 34 36
80 3 1 31 34 36
81 1 61 59 62 63
82 1 61 59 62 64
83 2 61 59 62 65
84 3 61 59 62 65
85 1 60 59 62 63
86 1 60 59 62 64
87 2 60 59 62 65
88 3 60 59 62 65
89 2 58 59 62 63
90 3 58 59 62 63
91 2 58 59 62 64
92 3 58 59 62 64
93 6 57 55 58 59
94 6 56 55 58 59
95 6 55 58 59 60
96 6 55 58 59 61
97 1 54 52 55 56
98 1 54 52 55 57
99 2 54 52 55 58
100 3 54 52 55 58
101 1 53 52 55 56
102 1 53 52 55 57
103 2 53 52 55 58
104 3 53 52 55 58
105 2 51 52 55 56
106 3 51 52 55 56
107 2 51 52 55 57
108 3 51 52 55 57
109 6 50 48 51 52
110 6 49 48 51 52
111 6 48 51 52 53
112 6 48 51 52 54
113 1 47 45 48 49
114 1 47 45 48 50
115 2 47 45 48 51
116 3 47 45 48 51
117 1 46 45 48 49
118 1 46 45 48 50
119 2 46 45 48 51
120 3 46 45 48 51
121 2 44 45 48 49
122 3 44 45 48 49
123 2 44 45 48 50
124 3 44 45 48 50
125 6 43 41 44 45
126 6 42 41 44 45
127 6 41 44 45 46
128 6 41 44 45 47
129 1 40 38 41 42
130 1 40 38 41 43
131 2 40 38 41 44
132 3 40 38 41 44
133 1 39 38 41 42
134 1 39 38 41 43
135 2 39 38 41 44
136 3 39 38 41 44
137 2 37 38 41 42
138 3 37 38 41 42
139 2 37 38 41 43
140 3 37 38 41 43
141 6 36 34 37 38
142 6 35 34 37 38
143 6 34 37 38 39
144 6 34 37 38 40
145 1 89 87 90 91
146 1 89 87 90 92
147 2 89 87 90 93
148 3 89 87 90 93
149 1 88 87 90 91
150 1 88 87 90 92
151 2 88 87 90 93
152 3 88 87 90 93
153 2 86 87 90 91
154 3 86 87 90 91
155 2 86 87 90 92
156 3 86 87 90 92
157 6 85 83 86 87
158 6 84 83 86 87
159 6 83 86 87 88
160 6 83 86 87 89
161 1 82 80 83 84
162 1 82 80 83 85
163 2 82 80 83 86
164 3 82 80 83 86
165 1 81 80 83 84
166 1 81 80 83 85
167 2 81 80 83 86
168 3 81 80 83 86
169 2 79 80 83 84
170 3 79 80 83 84
171 2 79 80 83 85
172 3 79 80 83 85
173 6 78 76 79 80
174 6 77 76 79 80
175 6 76 79 80 81
176 6 76 79 80 82
177 1 75 73 76 77
178 1 75 73 76 78
179 2 75 73 76 79
180 3 75 73 76 79
181 1 74 73 76 77
182 1 74 73 76 78
183 2 74 73 76 79
184 3 74 73 76 79
185 2 72 73 76 77
186 3 72 73 76 77
187 2 72 73 76 78
188 3 72 73 76 78
189 6 71 69 72 73
190 6 70 69 72 73
191 6 69 72 73 74
192 6 69 72 73 75
193 1 68 66 69 70
194 1 68 66 69 71
195 2 68 66 69 72
196 3 68 66 69 72
197 1 67 66 69 70
198 1 67 66 69 71
199 2 67 66 69 72
200 3 67 66 69 72
201 2 65 66 69 70
202 3 65 66 69 70
203 2 65 66 69 71
204 3 65 66 69 71
205 6 64 62 65 66
206 6 63 62 65 66
207 6 62 65 66 67
208 6 62 65 66 68
209 1 117 115 118 119
210 1 117 115 118 120
211 2 117 115 118 121
212 3 117 115 118 121
213 1 116 115 118 119
214 1 116 115 118 120
215 2 116 115 118 121
216 3 116 115 118 121
217 2 114 115 118 119
218 3 114 115 118 119
219 2 114 115 118 120
220 3 114 115 118 120
221 6 113 111 114 115
222 6 112 111 114 115
223 6 111 114 115 116
224 6 111 114 115 117
225 1 110 108 111 112
226 1 110 108 111 113
227 2 110 108 111 114
228 3 110 108 111 114
229 1 109 108 111 112
230 1 109 108 111 113
231 2 109 108 111 114
232 3 109 108 111 114
233 2 107 108 111 112
234 3 107 108 111 112
235 2 107 108 111 113
236 3 107 108 111 113
237 6 106 104 107 108
238 6 105 104 107 108
239 6 104 107 108 109
240 6 104 107 108 110
241 1 103 101 104 105
242 1 103 101 104 106
243 2 103 101 104 107
244 3 103 101 104 107
245 1 102 101 104 105
246 1 102 101 104 106
247 2 102 101 104 107
248 3 102 101 104 107
249 2 100 101 104 105
250 3 100 101 104 105
251 2 100 101 104 106
252 3 100 101 104 106
253 6 99 97 100 101
254 6 98 97 100 101
255 6 97 100 101 102
256 6 97 100 101 103
257 1 96 94 97 98
258 1 96 94 97 99
259 2 96 94 97 100
260 3 96 94 97 100
261 1 95 94 97 98
262 1 95 94 97 99
263 2 95 94 97 100
264 3 95 94 97 100
265 2 93 94 97 98
266 3 93 94 97 98
267 2 93 94 97 99
268 3 93 94 97 99
269 6 92 90 93 94
270 6 91 90 93 94
271 6 90 93 94 95
272 6 90 93 94 96
273 1 148 144 143 149
274 1 148 144 143 150
275 1 147 144 143 149
276 1 147 144 143 150
277 7 146 145 144 147
278 7 146 145 144 148
279 2 145 144 143 149
280 3 145 144 143 149
281 2 145 144 143 150
282 3 145 144 143 150
283 2 143 144 145 146
284 8 143 144 145 146
285 2 142 143 144 147
286 3 142 143 144 147
287 2 142 143 144 148
288 3 142 143 144 148
289 6 141 139 142 143
290 6 140 139 142 143
291 6 139 142 143 149
292 6 139 142 143 150
293 1 138 136 139 140
294 1 138 136 139 141
295 2 138 136 139 142
296 3 138 136 139 142
297 1 137 136 139 140
298 1 137 136 139 141
299 2 137 136 139 142
300 3 137 136 139 142
301 2 135 136 139 140
302 3 135 136 139 140
303 2 135 136 139 141
304 3 135 136 139 141
305 6 134 132 135 136
306 6 133 132 135 136
307 6 132 135 136 137
308 6 132 135 136 138
309 1 131 129 132 133
310 1 131 129 132 134
311 2 131 129 132 135
312 3 131 129 132 135
313 1 130 129 132 133
314 1 130 129 132 134
315 2 130 129 132 135
316 3 130 129 132 135
317 2 128 129 132 133
318 3 128 129 132 133
319 2 128 129 132 134
320 3 128 129 132 134
321 6 127 125 128 129
322 6 126 125 128 129
323 6 125 128 129 130
324 6 125 128 129 131
325 1 124 122 125 126
326 1 124 122 125 127
327 2 124 122 125 128
328 3 124 122 125 128
329 1 123 122 125 126
330 1 123 122 125 127
331 2 123 122 125 128
332 3 123 122 125 128
333 2 121 122 125 126
334 3 121 122 125 126
335 2 121 122 125 127
336 3 121 122 125 127
337 6 120 118 121 122
338 6 119 118 121 122
339 6 118 121 122 123
340 6 118 121 122 124
341 4 31 34 37 38
342 5 31 34 37 38
343 9 10 11 12 13
344 10 10 11 12 13
345 4 9 10 11 12
346 5 9 10 11 12
347 4 8 9 10 11
348 5 8 9 10 11
349 9 7 8 9 10
350 10 7 8 9 10
351 4 6 7 8 9
352 5 6 7 8 9
353 4 5 6 7 8
354 5 5 6 7 8
355 9 4 5 6 7
356 10 4 5 6 7
357 4 31 1 2 3
358 5 31 1 2 3
359 4 3 4 5 6
360 5 3 4 5 6
361 4 2 1 31 34
362 5 2 1 31 34
363 4 2 3 4 5
364 5 2 3 4 5
365 9 1 2 3 4
366 10 1 2 3 4
367 9 1 31 34 37
368 10 1 31 34 37
369 4 59 62 65 66
370 5 59 62 65 66
371 9 58 59 62 65
372 10 58 59 62 65
373 4 55 58 59 62
374 5 55 58 59 62
375 4 52 55 58 59
376 5 52 55 58 59
377 9 51 52 55 58
378 10 51 52 55 58
379 4 48 51 52 55
380 5 48 51 52 55
381 4 45 48 51 52
382 5 45 48 51 52
383 9 44 45 48 51
384 10 44 45 48 51
385 4 41 44 45 48
386 5 41 44 45 48
387 4 38 41 44 45
388 5 38 41 44 45
389 9 37 38 41 44
390 10 37 38 41 44
391 4 34 37 38 41
392 5 34 37 38 41
393 4 87 90 93 94
394 5 87 90 93 94
395 9 86 87 90 93
396 10 86 87 90 93
397 4 83 86 87 90
398 5 83 86 87 90
399 4 80 83 86 87
400 5 80 83 86 87
401 9 79 80 83 86
402 10 79 80 83 86
403 4 76 79 80 83
404 5 76 79 80 83
405 4 73 76 79 80
406 5 73 76 79 80
407 9 72 73 76 79
408 10 72 73 76 79
409 4 69 72 73 76
410 5 69 72 73 76
411 4 66 69 72 73
412 5 66 69 72 73
413 9 65 66 69 72
414 10 65 66 69 72
415 4 62 65 66 69
416 5 62 65 66 69
417 4 115 118 121 122
418 5 115 118 121 122
419 9 114 115 118 121
420 10 114 115 118 121
421 4 111 114 115 118
422 5 111 114 115 118
423 4 108 111 114 115
424 5 108 111 114 115
425 9 107 108 111 114
426 10 107 108 111 114
427 4 104 107 108 111
428 5 104 107 108 111
429 4 101 104 107 108
430 5 101 104 107 108
431 9 100 101 104 107
432 10 100 101 104 107
433 4 97 100 101 104
434 5 97 100 101 104
435 4 94 97 100 101
436 5 94 97 100 101
437 9 93 94 97 100
438 10 93 94 97 100
439 4 90 93 94 97
440 5 90 93 94 97
441 9 142 143 144 145
442 10 142 143 144 145
443 4 139 142 143 144
444 5 139 142 143 144
445 4 136 139 142 143
446 5 136 139 142 143
447 9 135 136 139 142
448 10 135 136 139 142
449 4 132 135 136 139
450 5 132 135 136 139
451 4 129 132 135 136
452 5 129 132 135 136
453 9 128 129 132 135
454 10 128 129 132 135
455 4 125 128 129 132
456 5 125 128 129 132
457 4 122 125 128 129
458 5 122 125 128 129
459 9 121 122 125 128
460 10 121 122 125 128
461 4 118 121 122 125
462 5 118 121 122 125

