LAMMPS data file for *****

72 atoms
71 bonds
130 angles
204 dihedrals
0 impropers

3 atom types
3 bond types
5 angle types
8 dihedral types

0.446 29.553 xlo xhi
-10.145 0.74 ylo yhi
-10.183 1.023 zlo zhi

Masses

1 12.01
2 16.0
3 1.008

Pair Coeffs

1 0.10939999991572773 3.399669508450741
2 0.17000000010548533 3.0000123432245225
3 0.01570000009846142 2.4713530426421655

Bond Coeffs

1 308.6 1.4316
2 330.6 1.0969
3 300.9 1.5375

Angle Coeffs

1 62.7 112.48004797700933
2 50.8 109.780046819855
3 68.0 107.97004621602035
4 46.4 109.56004706934303
5 39.2 108.46004659790978

Dihedral Coeffs

1 0.1 -1 2
2 0.383 1 3
3 0.383333333 1 3
4 1.175 1 2
5 0.144 1 3
6 0.25 1 1
7 0.0 1 3
8 0.155555556 1 3

Atoms

1 0 1 0.1187 0.835 0.018 0.024
2 0 2 -0.4246 2.256 0.012 0.008
3 0 1 0.1244 2.759 -0.366 -1.273
4 0 1 0.1304 4.282 -0.358 -1.242
5 0 2 -0.4306 4.776 -0.736 -2.526
6 0 1 0.1304 6.202 -0.743 -2.55
7 0 1 0.1294 6.677 -1.151 -3.937
8 0 2 -0.4296 8.103 -1.155 -3.958
9 0 1 0.12990000000000002 8.599 -1.532 -5.24
10 0 1 0.1304 10.12 -1.52 -5.21
11 0 2 -0.4306 10.61 -1.894 -6.496
12 0 1 0.1304 12.036 -1.886 -6.528
13 0 1 0.12840000000000001 12.5 -2.281 -7.923
14 0 2 -0.4296 13.92 -2.211 -7.977
15 0 1 0.12840000000000001 14.423 -2.679 -9.232
16 0 1 0.12840000000000001 15.947 -2.662 -9.191
17 0 2 -0.4296 16.397 -3.658 -8.267
18 0 1 0.12840000000000001 17.812 -3.639 -8.123
19 0 1 0.1304 18.215 -4.635 -7.044
20 0 2 -0.4306 19.638 -4.66 -6.946
21 0 1 0.1304 20.071 -5.585 -5.953
22 0 1 0.12990000000000002 21.592 -5.576 -5.902
23 0 2 -0.4296 22.032 -6.503 -4.912
24 0 1 0.1294 23.455 -6.53 -4.826
25 0 1 0.1304 23.87 -7.531 -3.757
26 0 2 -0.4306 25.292 -7.559 -3.668
27 0 1 0.1304 25.731 -8.485 -2.676
28 0 1 0.1244 27.253 -8.475 -2.623
29 0 2 -0.4246 27.7 -9.401 -1.634
30 0 1 0.1187 29.118 -9.423 -1.55
31 0 3 0.03436699999451222 0.504 0.312 1.023
32 0 3 0.03436699999451222 0.446 -0.982 -0.194
33 0 3 0.03436699999451222 0.447 0.74 -0.701
34 0 3 0.04019999999999999 2.4 0.331 -2.04
35 0 3 0.04019999999999999 2.399 -1.368 -1.538
36 0 3 0.042699999999999995 4.643 -1.056 -0.478
37 0 3 0.042699999999999995 4.644 0.644 -0.979
38 0 3 0.042699999999999995 6.589 -1.447 -1.803
39 0 3 0.042699999999999995 6.588 0.253 -2.303
40 0 3 0.0422 6.291 -0.448 -4.685
41 0 3 0.0422 6.293 -2.148 -4.184
42 0 3 0.0422 8.237 -0.834 -6.005
43 0 3 0.0422 8.24 -2.534 -5.505
44 0 3 0.042699999999999995 10.485 -2.219 -4.448
45 0 3 0.042699999999999995 10.479 -0.518 -4.946
46 0 3 0.0422 12.435 -2.592 -5.789
47 0 3 0.0422 12.415 -0.889 -6.276
48 0 3 0.041199999999999994 12.065 -1.607 -8.671
49 0 3 0.041199999999999994 12.156 -3.297 -8.15
50 0 3 0.0452 14.064 -2.017 -10.028
51 0 3 0.0452 14.064 -3.699 -9.409
52 0 3 0.0452 16.302 -1.679 -8.864
53 0 3 0.0452 16.35 -2.891 -10.183
54 0 3 0.041199999999999994 18.157 -2.636 -7.844
55 0 3 0.041199999999999994 18.286 -3.904 -9.075
56 0 3 0.0422 17.836 -5.633 -7.295
57 0 3 0.0422 17.776 -4.341 -6.083
58 0 3 0.042699999999999995 19.712 -6.593 -6.192
59 0 3 0.042699999999999995 19.663 -5.307 -4.973
60 0 3 0.0422 21.95 -4.568 -5.661
61 0 3 0.0422 21.998 -5.85 -6.883
62 0 3 0.0422 23.837 -5.534 -4.573
63 0 3 0.0422 23.886 -6.818 -5.793
64 0 3 0.042699999999999995 23.488 -8.527 -4.013
65 0 3 0.042699999999999995 23.436 -7.244 -2.792
66 0 3 0.042699999999999995 25.373 -9.493 -2.918
67 0 3 0.042699999999999995 25.322 -8.21 -1.696
68 0 3 0.04019999999999999 27.608 -7.466 -2.383
69 0 3 0.04019999999999999 27.659 -8.747 -3.605
70 0 3 0.03436699999451222 29.407 -10.145 -0.782
71 0 3 0.03436699999451222 29.501 -8.438 -1.267
72 0 3 0.03436699999451222 29.553 -9.736 -2.505

Bonds

1 2 1 31
2 2 1 32
3 2 1 33
4 2 3 34
5 2 3 35
6 2 4 36
7 2 4 37
8 2 6 38
9 2 6 39
10 2 7 40
11 2 7 41
12 2 9 42
13 2 9 43
14 2 10 44
15 2 10 45
16 2 12 46
17 2 12 47
18 2 13 48
19 2 13 49
20 2 15 50
21 2 15 51
22 2 16 52
23 2 16 53
24 2 18 54
25 2 18 55
26 2 19 56
27 2 19 57
28 2 21 58
29 2 21 59
30 2 22 60
31 2 22 61
32 2 24 62
33 2 24 63
34 2 25 64
35 2 25 65
36 2 27 66
37 2 27 67
38 2 28 68
39 2 28 69
40 2 30 70
41 2 30 71
42 2 30 72
43 1 1 2
44 1 2 3
45 3 3 4
46 1 4 5
47 1 5 6
48 3 6 7
49 1 7 8
50 1 8 9
51 3 9 10
52 1 10 11
53 1 11 12
54 3 12 13
55 1 13 14
56 1 14 15
57 3 15 16
58 1 16 17
59 1 17 18
60 3 18 19
61 1 19 20
62 1 20 21
63 3 21 22
64 1 22 23
65 1 23 24
66 3 24 25
67 1 25 26
68 1 26 27
69 3 27 28
70 1 28 29
71 1 29 30

Angles

1 2 2 1 31
2 2 2 1 32
3 2 2 1 33
4 2 2 3 34
5 2 2 3 35
6 4 3 4 36
7 4 3 4 37
8 4 4 3 34
9 4 4 3 35
10 2 5 4 36
11 2 5 4 37
12 2 5 6 38
13 2 5 6 39
14 4 6 7 40
15 4 6 7 41
16 4 7 6 38
17 4 7 6 39
18 2 8 7 40
19 2 8 7 41
20 2 8 9 42
21 2 8 9 43
22 4 9 10 44
23 4 9 10 45
24 4 10 9 42
25 4 10 9 43
26 2 11 10 44
27 2 11 10 45
28 2 11 12 46
29 2 11 12 47
30 4 12 13 48
31 4 12 13 49
32 4 13 12 46
33 4 13 12 47
34 2 14 13 48
35 2 14 13 49
36 2 14 15 50
37 2 14 15 51
38 4 15 16 52
39 4 15 16 53
40 4 16 15 50
41 4 16 15 51
42 2 17 16 52
43 2 17 16 53
44 2 17 18 54
45 2 17 18 55
46 4 18 19 56
47 4 18 19 57
48 4 19 18 54
49 4 19 18 55
50 2 20 19 56
51 2 20 19 57
52 2 20 21 58
53 2 20 21 59
54 4 21 22 60
55 4 21 22 61
56 4 22 21 58
57 4 22 21 59
58 2 23 22 60
59 2 23 22 61
60 2 23 24 62
61 2 23 24 63
62 4 24 25 64
63 4 24 25 65
64 4 25 24 62
65 4 25 24 63
66 2 26 25 64
67 2 26 25 65
68 2 26 27 66
69 2 26 27 67
70 4 27 28 68
71 4 27 28 69
72 4 28 27 66
73 4 28 27 67
74 2 29 28 68
75 2 29 28 69
76 2 29 30 70
77 2 29 30 71
78 2 29 30 72
79 5 31 1 32
80 5 31 1 33
81 5 32 1 33
82 5 34 3 35
83 5 36 4 37
84 5 38 6 39
85 5 40 7 41
86 5 42 9 43
87 5 44 10 45
88 5 46 12 47
89 5 48 13 49
90 5 50 15 51
91 5 52 16 53
92 5 54 18 55
93 5 56 19 57
94 5 58 21 59
95 5 60 22 61
96 5 62 24 63
97 5 64 25 65
98 5 66 27 67
99 5 68 28 69
100 5 70 30 71
101 5 70 30 72
102 5 71 30 72
103 1 1 2 3
104 3 2 3 4
105 3 3 4 5
106 1 4 5 6
107 3 5 6 7
108 3 6 7 8
109 1 7 8 9
110 3 8 9 10
111 3 9 10 11
112 1 10 11 12
113 3 11 12 13
114 3 12 13 14
115 1 13 14 15
116 3 14 15 16
117 3 15 16 17
118 1 16 17 18
119 3 17 18 19
120 3 18 19 20
121 1 19 20 21
122 3 20 21 22
123 3 21 22 23
124 1 22 23 24
125 3 23 24 25
126 3 24 25 26
127 1 25 26 27
128 3 26 27 28
129 3 27 28 29
130 1 28 29 30

Dihedrals

1 3 1 2 3 34
2 3 1 2 3 35
3 6 2 3 4 36
4 7 2 3 4 36
5 6 2 3 4 37
6 7 2 3 4 37
7 3 31 1 2 3
8 3 32 1 2 3
9 3 33 1 2 3
10 3 4 5 6 38
11 3 4 5 6 39
12 6 5 4 3 34
13 7 5 4 3 34
14 6 5 4 3 35
15 7 5 4 3 35
16 6 5 6 7 40
17 7 5 6 7 40
18 6 5 6 7 41
19 7 5 6 7 41
20 3 6 5 4 36
21 3 6 5 4 37
22 3 7 8 9 42
23 3 7 8 9 43
24 6 8 7 6 38
25 7 8 7 6 38
26 6 8 7 6 39
27 7 8 7 6 39
28 6 8 9 10 44
29 7 8 9 10 44
30 6 8 9 10 45
31 7 8 9 10 45
32 3 9 8 7 40
33 3 9 8 7 41
34 3 10 11 12 46
35 3 10 11 12 47
36 6 11 10 9 42
37 7 11 10 9 42
38 6 11 10 9 43
39 7 11 10 9 43
40 6 11 12 13 48
41 7 11 12 13 48
42 6 11 12 13 49
43 7 11 12 13 49
44 3 12 11 10 44
45 3 12 11 10 45
46 3 13 14 15 50
47 3 13 14 15 51
48 6 14 13 12 46
49 7 14 13 12 46
50 6 14 13 12 47
51 7 14 13 12 47
52 6 14 15 16 52
53 7 14 15 16 52
54 6 14 15 16 53
55 7 14 15 16 53
56 3 15 14 13 48
57 3 15 14 13 49
58 3 16 17 18 54
59 3 16 17 18 55
60 6 17 16 15 50
61 7 17 16 15 50
62 6 17 16 15 51
63 7 17 16 15 51
64 6 17 18 19 56
65 7 17 18 19 56
66 6 17 18 19 57
67 7 17 18 19 57
68 3 18 17 16 52
69 3 18 17 16 53
70 3 19 20 21 58
71 3 19 20 21 59
72 6 20 19 18 54
73 7 20 19 18 54
74 6 20 19 18 55
75 7 20 19 18 55
76 6 20 21 22 60
77 7 20 21 22 60
78 6 20 21 22 61
79 7 20 21 22 61
80 3 21 20 19 56
81 3 21 20 19 57
82 3 22 23 24 62
83 3 22 23 24 63
84 6 23 22 21 58
85 7 23 22 21 58
86 6 23 22 21 59
87 7 23 22 21 59
88 6 23 24 25 64
89 7 23 24 25 64
90 6 23 24 25 65
91 7 23 24 25 65
92 3 24 23 22 60
93 3 24 23 22 61
94 3 25 26 27 66
95 3 25 26 27 67
96 6 26 25 24 62
97 7 26 25 24 62
98 6 26 25 24 63
99 7 26 25 24 63
100 6 26 27 28 68
101 7 26 27 28 68
102 6 26 27 28 69
103 7 26 27 28 69
104 3 27 26 25 64
105 3 27 26 25 65
106 3 28 29 30 70
107 3 28 29 30 71
108 3 28 29 30 72
109 6 29 28 27 66
110 7 29 28 27 66
111 6 29 28 27 67
112 7 29 28 27 67
113 3 30 29 28 68
114 3 30 29 28 69
115 8 34 3 4 36
116 8 34 3 4 37
117 8 35 3 4 36
118 8 35 3 4 37
119 8 38 6 7 40
120 8 38 6 7 41
121 8 39 6 7 40
122 8 39 6 7 41
123 8 42 9 10 44
124 8 42 9 10 45
125 8 43 9 10 44
126 8 43 9 10 45
127 8 46 12 13 48
128 8 46 12 13 49
129 8 47 12 13 48
130 8 47 12 13 49
131 8 50 15 16 52
132 8 50 15 16 53
133 8 51 15 16 52
134 8 51 15 16 53
135 8 54 18 19 56
136 8 54 18 19 57
137 8 55 18 19 56
138 8 55 18 19 57
139 8 58 21 22 60
140 8 58 21 22 61
141 8 59 21 22 60
142 8 59 21 22 61
143 8 62 24 25 64
144 8 62 24 25 65
145 8 63 24 25 64
146 8 63 24 25 65
147 8 66 27 28 68
148 8 66 27 28 69
149 8 67 27 28 68
150 8 67 27 28 69
151 1 1 2 3 4
152 2 1 2 3 4
153 4 2 3 4 5
154 5 2 3 4 5
155 1 3 4 5 6
156 2 3 4 5 6
157 1 4 5 6 7
158 2 4 5 6 7
159 4 5 6 7 8
160 5 5 6 7 8
161 1 6 7 8 9
162 2 6 7 8 9
163 1 7 8 9 10
164 2 7 8 9 10
165 4 8 9 10 11
166 5 8 9 10 11
167 1 9 10 11 12
168 2 9 10 11 12
169 1 10 11 12 13
170 2 10 11 12 13
171 4 11 12 13 14
172 5 11 12 13 14
173 1 12 13 14 15
174 2 12 13 14 15
175 1 13 14 15 16
176 2 13 14 15 16
177 4 14 15 16 17
178 5 14 15 16 17
179 1 15 16 17 18
180 2 15 16 17 18
181 1 16 17 18 19
182 2 16 17 18 19
183 4 17 18 19 20
184 5 17 18 19 20
185 1 18 19 20 21
186 2 18 19 20 21
187 1 19 20 21 22
188 2 19 20 21 22
189 4 20 21 22 23
190 5 20 21 22 23
191 1 21 22 23 24
192 2 21 22 23 24
193 1 22 23 24 25
194 2 22 23 24 25
195 4 23 24 25 26
196 5 23 24 25 26
197 1 24 25 26 27
198 2 24 25 26 27
199 1 25 26 27 28
200 2 25 26 27 28
201 4 26 27 28 29
202 5 26 27 28 29
203 1 27 28 29 30
204 2 27 28 29 30

