LAMMPS data file via write_data, version 11 Aug 2017, timestep = 55173

430 atoms
13 atom types
431 bonds
431 bond types
796 angles
796 angle types
1115 dihedrals
1115 dihedral types

-9.0027775597268072e+00 8.4962277559726886e+01 xlo xhi
-1.3035996780125597e+01 1.7235496780125619e+01 ylo yhi
-1.2352033228178801e+02 1.7415322817879770e+00 zlo zhi
0.0000000000000000e+00 0.0000000000000000e+00 0.0000000000000000e+00 xy xz yz

Masses

1 12.01
2 14.01
3 12.01
4 12.01
5 14.01
6 12.01
7 14.01
8 16
9 1.008
10 1.008
11 1.008
12 1.008
13 16

Pair Coeffs # lj/cut/coul/long

1 0.086 3.39967
2 0.17 3.25
3 0.1094 3.39967
4 0.086 3.39967
5 0.17 3.25
6 0.086 3.39967
7 0.17 3.25
8 0.21 2.95992
9 0.015 2.59964
10 0.0157 2.64953
11 0.0157 1.06908
12 0.0157 2.47135
13 0.17 3.00001

Atoms # full

31 1 10 5.0862999999999998e-02 1.3514303187863790e+01 1.0186219041022834e+01 -1.2147023701162648e+02 0 0 1
26 1 8 -5.9318400000000004e-01 1.1686070044473988e+01 9.1326896102845545e+00 -1.2347003456354511e+02 0 0 1
8 1 3 6.9222000000000006e-02 1.4481274505619618e+01 9.6810758416754332e+00 -1.2337490968550014e+02 0 0 1
28 1 12 7.1429000000000006e-02 1.4262535871535642e+01 8.6062896630888410e+00 -1.2338823974638655e+02 0 0 1
70 2 12 5.8992000000000003e-02 1.3944336562106917e+01 1.0661141553750223e+01 -9.9571107433426533e+00 0 0 0
9 1 2 -5.3018799999999999e-01 1.3455108288226510e+01 1.0374735873967307e+01 1.0770370050625644e+00 0 0 0
10 1 1 7.4449200000000004e-01 1.2117244374464763e+01 1.0015570820836857e+01 1.0932230996847636e+00 0 0 0
11 1 2 -4.9081399999999997e-01 1.1288816415507073e+01 1.0713336348112431e+01 2.7708992345247907e-01 0 0 0
12 1 4 6.8801000000000001e-01 1.1401637538171139e+01 1.1881291742147038e+01 -3.8744341955187167e-01 0 0 0
13 1 5 -7.2366200000000003e-01 1.2075025662009226e+01 1.2918503237778143e+01 1.8499632205755745e-01 0 0 0
14 1 4 1.4627000000000001e-01 1.2182286229747001e+01 1.4137420657126576e+01 -4.5479498308424127e-01 0 0 0
15 1 6 -3.1418499999999999e-01 1.1486561436536087e+01 1.4263502354462204e+01 -1.6332573218026738e+00 0 0 0
16 1 1 6.9994800000000001e-01 1.0685593265991498e+01 1.3233035560655921e+01 -2.2204921639616941e+00 0 0 0
17 1 7 -6.9983899999999999e-01 1.0717955381456756e+01 1.2050705526252390e+01 -1.4867743000138063e+00 0 0 0
55 2 13 -3.8925700000000002e-01 1.4062085444984879e+01 1.2027338531273848e+01 -2.6549959813890638e+00 0 0 0
64 2 12 7.1859999999999993e-02 1.0873151257919785e+01 1.2139201594141792e+01 -5.2123857939611327e+00 0 0 0
66 2 1 7.6876299999999997e-01 1.3198663403123758e+01 1.1308152337182950e+01 -7.4386305381373177e+00 0 0 0
68 2 13 -3.8777099999999998e-01 1.3774046788669205e+01 1.2048628355646922e+01 -8.4148617312787053e+00 0 0 0
67 2 8 -5.7660500000000003e-01 1.3430176239177273e+01 1.0115411213665460e+01 -7.3118791884513428e+00 0 0 0
60 2 10 7.9430000000000001e-02 1.2092550975287589e+01 1.0643868776572116e+01 -3.5568600834334205e+00 0 0 0
74 3 10 5.0744999999999998e-02 1.4142037138423616e+01 1.2894240226866618e+01 -1.0985458951884226e+01 0 0 0
25 1 11 3.6366799999999999e-01 1.0394463232769235e+01 1.0250252807012806e+01 1.6914350855452653e-01 0 0 0
22 1 10 6.4574000000000006e-02 1.2313922993742979e+01 1.6117782978625243e+01 3.2872416813445682e-01 0 0 0
27 1 11 2.9645199999999999e-01 1.3745429439980741e+01 1.1064123914339287e+01 3.9408446744657510e-01 0 0 0
63 2 12 7.1859999999999993e-02 1.1173040290255274e+01 1.0533150100533408e+01 -5.8800449000176229e+00 0 0 0
58 2 12 7.1859999999999993e-02 1.2824698040478831e+01 1.3167030033263842e+01 -3.8023332956218496e+00 0 0 0
62 2 3 1.4220600000000000e-01 1.1664753074913735e+01 1.1446474819375414e+01 -5.5233291793069696e+00 0 0 0
19 1 9 1.7155100000000001e-01 1.1567690228029191e+01 1.5182693914285956e+01 -2.2015096297959076e+00 0 0 0
20 1 3 -7.5656000000000001e-02 1.2978485937538908e+01 1.5271507945987949e+01 1.1573526419762459e-01 0 0 0
18 1 8 -5.3537100000000004e-01 1.0062396921946148e+01 1.3396470227486382e+01 -3.2476339108813335e+00 0 0 0
56 2 3 1.4220600000000000e-01 1.3484256166931557e+01 1.2300022955136615e+01 -3.9306743035254925e+00 0 0 0
59 2 3 -1.2027400000000001e-01 1.2657368395002637e+01 1.1078263910895199e+01 -4.3908095781010275e+00 0 0 0
24 1 11 4.6830400000000000e-01 1.2475943196263744e+01 1.2764589058445747e+01 1.0991492393135474e+00 0 0 0
21 1 10 6.4574000000000006e-02 1.3744667233152478e+01 1.5630827729487596e+01 -5.8215092528132573e-01 0 0 0
65 2 13 -3.8925700000000002e-01 1.2399228176170373e+01 1.2057424898291810e+01 -6.6033546264938536e+00 0 0 0
61 2 10 7.9430000000000001e-02 1.3343785760915518e+01 1.0287151740503106e+01 -4.7166352118850483e+00 0 0 0
57 2 12 7.1859999999999993e-02 1.4276421734345087e+01 1.2490104630775562e+01 -4.6652029150147740e+00 0 0 0
23 1 10 6.4574000000000006e-02 1.3464491477242708e+01 1.4974352285114517e+01 1.0531181841705148e+00 0 0 0
130 4 10 4.4679999999999997e-02 3.5961813739346255e+01 -1.1193692656164160e+01 -2.6619838175385340e+01 0 1 0
121 4 8 -5.3710899999999995e-01 3.1753825572669349e+01 -1.1474722797421972e+01 -2.3257708480403579e+01 0 1 0
124 4 12 5.2766000000000000e-02 3.4116807667177468e+01 -1.1345531044474216e+01 -2.4681345463039563e+01 0 1 0
125 4 12 5.2766000000000000e-02 3.2733996713274884e+01 -1.1327222972907075e+01 -2.5818788067938158e+01 0 1 0
131 4 10 4.4679999999999997e-02 3.4638326774729030e+01 -1.1001545373656139e+01 -2.7751859319919731e+01 0 1 0
136 4 10 7.9554000000000000e-02 3.7659985855625742e+01 -1.1085639823270347e+01 -2.8688308108421509e+01 0 1 0
115 4 10 5.9841999999999999e-02 3.0290393015629945e+01 -1.2842714762431205e+01 -2.1347516563789696e+01 0 1 0
123 4 3 1.4091300000000001e-01 3.3483719494675782e+01 -1.1962207013308163e+01 -2.5331037486482003e+01 0 1 0
129 4 3 -7.7549000000000007e-02 3.5264503057664712e+01 -1.1753033901972685e+01 -2.7255514818080840e+01 0 1 0
137 4 10 7.9554000000000000e-02 3.6251745937719321e+01 -1.0919157206880353e+01 -2.9757431067232872e+01 0 1 0
120 4 1 6.3895999999999997e-01 3.2025430372255649e+01 -1.2630971846956232e+01 -2.3533583657660557e+01 0 1 0
135 4 3 -1.2601799999999999e-01 3.6904699331773550e+01 -1.1643529729824076e+01 -2.9255309639070418e+01 0 1 0
138 4 1 6.3794899999999999e-01 3.7667847772323164e+01 -1.2420759100763988e+01 -3.0324319230269296e+01 0 1 0
132 4 3 -7.7549000000000007e-02 3.6063403439824313e+01 -1.2564718141688678e+01 -2.8325118217071989e+01 0 1 0
126 4 3 -8.4473000000000006e-02 3.4358358146990206e+01 -1.2669922760437110e+01 -2.6391558615872682e+01 0 1 0
122 4 13 -4.3908300000000000e-01 3.2843645536107118e+01 -1.2995492365497828e+01 -2.4557272365642035e+01 0 1 0
34 1 10 4.7351999999999998e-02 1.4544463107387623e+01 9.8425856147170130e+00 -1.1913699367666084e+02 0 0 1
30 1 10 5.0862999999999998e-02 1.4881339546142209e+01 1.1217809710766804e+01 -1.2194112005998787e+02 0 0 1
38 1 12 4.9357999999999999e-02 1.7784969680901106e+01 1.1056891517549715e+01 -1.2081255576598309e+02 0 0 1
39 1 12 4.9357999999999999e-02 1.8267582563261456e+01 1.0879148403837615e+01 -1.1911058407717232e+02 0 0 1
33 1 10 4.6349000000000001e-02 1.6477337938503226e+01 9.3021451222183309e+00 -1.2145077868648876e+02 0 0 1
41 1 8 -5.9009400000000001e-01 1.8595937726020288e+01 1.4800759538260248e+01 -1.2089810879066327e+02 0 0 1
3 1 3 9.6309000000000006e-02 1.7637544234128526e+01 1.1453683169494308e+01 -1.1980062111760442e+02 0 0 1
1 1 1 7.3746900000000004e-01 1.8079251702552661e+01 1.3709914958248930e+01 -1.2091443121669622e+02 0 0 1
4 1 3 -9.2102000000000003e-02 1.6153822808054642e+01 1.1291741055127954e+01 -1.1938728118459855e+02 0 0 1
42 1 13 -4.4346700000000000e-01 1.7413710127057165e+01 1.3144522158795759e+01 -1.2194973666824066e+02 0 0 1
32 1 10 4.6349000000000001e-02 1.5114266119283295e+01 8.2784882465755096e+00 -1.2092830319639114e+02 0 0 1
6 1 3 -7.7150999999999997e-02 1.5457066010872010e+01 9.3135308509215697e+00 -1.2104815582453325e+02 0 0 1
35 1 10 4.7351999999999998e-02 1.6161292788024575e+01 9.2045998073616211e+00 -1.1898027348185084e+02 0 0 1
40 1 11 3.2755200000000001e-01 1.8495681370807709e+01 1.3280093762248089e+01 -1.1900372972987768e+02 0 0 1
2 1 2 -5.4115199999999997e-01 1.8082063259208240e+01 1.2868898589343885e+01 -1.1983186317174388e+02 0 0 1
5 1 3 -7.7150999999999997e-02 1.5545261346367903e+01 9.8820281659604774e+00 -1.1958424839180812e+02 0 0 1
36 1 10 5.1365000000000001e-02 1.6092009404874929e+01 1.1535520310594126e+01 -1.1831960127573070e+02 0 0 1
7 1 3 -1.1403099999999999e-01 1.4516052436011387e+01 1.0183799197751053e+01 -1.2191709515370179e+02 0 0 1
43 1 3 1.4988099999999999e-01 1.7301726620764107e+01 1.3836007649152034e+01 -1.2318293473156767e+02 0 0 1
37 1 10 5.1365000000000001e-02 1.5516542981877302e+01 1.2026273666614273e+01 -1.1989475125840066e+02 0 0 1
44 1 12 5.5878999999999998e-02 1.6814487595293436e+01 1.4807333867307332e+01 -1.2303355896335310e+02 0 0 1
128 4 10 5.7820999999999997e-02 3.4985078818318122e+01 1.6840363059055946e+01 -2.5910961502273423e+01 0 0 0
134 4 10 6.0347999999999999e-02 3.6762419320296772e+01 1.7041729049387456e+01 -2.7803313909104958e+01 0 0 0
127 4 10 5.7820999999999997e-02 3.3657010089217138e+01 1.7074080882640040e+01 -2.7049627684542372e+01 0 0 0
133 4 10 6.0347999999999999e-02 3.5393853079885311e+01 1.7058118117709117e+01 -2.8903162880123915e+01 0 0 0
139 4 8 -5.3809799999999997e-01 3.7751522019044842e+01 1.6634016966585484e+01 -3.0397168394089363e+01 0 0 0
118 4 10 7.9554000000000000e-02 3.1259298614099613e+01 1.5630736934871422e+01 -2.3663613921361659e+01 0 0 0
117 4 3 -1.2601799999999999e-01 3.1432772618571477e+01 1.6382734115336461e+01 -2.2884129078431314e+01 0 0 0
119 4 10 7.9554000000000000e-02 3.2195948223645843e+01 1.5951008094581955e+01 -2.2225065159829256e+01 0 0 0
104 3 13 -4.4007200000000002e-01 2.6450770298344992e+01 1.4767659769372024e+01 -1.9452213434495263e+01 0 0 0
105 3 3 1.3990200000000000e-01 2.7743157091653778e+01 1.4427296960482892e+01 -1.9937172124700837e+01 0 0 0
106 3 12 5.1756000000000003e-02 2.7666062733143107e+01 1.3615287843351577e+01 -2.0670580103695684e+01 0 0 0
116 4 10 5.9841999999999999e-02 2.9361102009279591e+01 1.7003354486002259e+01 -2.2780506074521440e+01 0 0 0
108 4 3 -1.1909300000000000e-01 2.8351387815316599e+01 1.5690229352652285e+01 -2.0598938317839156e+01 0 0 0
109 4 10 5.0744999999999998e-02 2.8628803065277125e+01 1.6414417715206547e+01 -1.9823192480177127e+01 0 0 0
110 4 10 5.0744999999999998e-02 2.7608111808321432e+01 1.6185212461951000e+01 -2.1235901510750679e+01 0 0 0
111 4 3 -7.4581999999999996e-02 2.9604664084239971e+01 1.5339606151318947e+01 -2.1411736821437430e+01 0 0 0
112 4 10 4.3163000000000000e-02 2.9346700770414891e+01 1.4596792425171191e+01 -2.2176506268467719e+01 0 0 0
113 4 10 4.3163000000000000e-02 3.0381243545408189e+01 1.4893378521534903e+01 -2.0778495277350004e+01 0 0 0
114 4 3 -7.8537999999999997e-02 3.0129270691995181e+01 1.6636460286622945e+01 -2.2088772649355334e+01 0 0 0
101 3 10 7.9554000000000000e-02 2.3816453224890566e+01 1.4641157572779168e+01 -1.9243840739027448e+01 0 0 0
88 3 12 5.2766000000000000e-02 2.0015309766009040e+01 1.5088363053977751e+01 -1.5345018771667000e+01 0 0 0
90 3 3 -8.4473000000000006e-02 2.1423084710038552e+01 1.3520685063154296e+01 -1.5910820274701607e+01 0 0 0
84 3 1 6.3895999999999997e-01 1.8000995258684810e+01 1.3313630901537330e+01 -1.4545009722207595e+01 0 0 0
89 3 12 5.2766000000000000e-02 1.9444624073108074e+01 1.4013338569187635e+01 -1.6638639138628520e+01 0 0 0
87 3 3 1.4091300000000001e-01 1.9991111791114761e+01 1.4046795935225770e+01 -1.5688154320899798e+01 0 0 0
86 3 13 -4.3908300000000000e-01 1.9333944418372077e+01 1.3220926428711604e+01 -1.4726616426398039e+01 0 0 0
93 3 3 -7.7549000000000007e-02 2.2233163389037735e+01 1.4355351027276431e+01 -1.6921807639271194e+01 0 0 0
85 3 8 -5.3710899999999995e-01 1.7270891076605317e+01 1.4074159220077217e+01 -1.5163571437235973e+01 0 0 0
83 3 10 7.9554000000000000e-02 1.8418280278183964e+01 1.1946179932716149e+01 -1.2911071075999686e+01 0 0 0
92 3 10 5.7820999999999997e-02 2.1952537203446781e+01 1.3506924628530673e+01 -1.4950257774047330e+01 0 0 0
79 3 10 5.9841999999999999e-02 1.6991039018152854e+01 1.3769858070897264e+01 -1.1962162013882050e+01 0 0 0
91 3 10 5.7820999999999997e-02 2.1361655866616992e+01 1.2480532469707470e+01 -1.6253601093224134e+01 0 0 0
81 3 3 -1.2601799999999999e-01 1.7548733454510327e+01 1.2305312877327683e+01 -1.3475075915997436e+01 0 0 0
77 3 10 4.3163000000000000e-02 1.6874536152360456e+01 1.1481931854602852e+01 -1.0902494735849316e+01 0 0 0
82 3 10 7.9554000000000000e-02 1.7138309603646810e+01 1.1407667432021935e+01 -1.3953588744622806e+01 0 0 0
94 3 10 4.4679999999999997e-02 2.2410166872424675e+01 1.5356157537563142e+01 -1.6509199222168505e+01 0 0 0
78 3 3 -7.8537999999999997e-02 1.6523675655313724e+01 1.2927595830377648e+01 -1.2486905203894807e+01 0 0 0
75 3 3 -7.4581999999999996e-02 1.6029318017788981e+01 1.1890900288159575e+01 -1.1469540356043979e+01 0 0 0
73 3 10 5.0744999999999998e-02 1.5455967153849494e+01 1.3315648381839953e+01 -9.9097768591751247e+00 0 0 0
80 3 10 5.9841999999999999e-02 1.5665529227686404e+01 1.3308351447471587e+01 -1.3054178928895993e+01 0 0 0
48 2 10 7.1608000000000005e-02 1.6725831733048743e+01 1.1918467668002211e+01 1.2278602877793787e+00 0 0 0
95 3 10 4.4679999999999997e-02 2.1658018587460887e+01 1.4489941476863368e+01 -1.7846082207854096e+01 0 0 0
76 3 10 4.3163000000000000e-02 1.5552950575041363e+01 1.1048977224353614e+01 -1.1986675951604525e+01 0 0 0
103 3 8 -5.3809799999999997e-01 2.6115933761490922e+01 1.2743175164035609e+01 -1.8395331819550549e+01 0 0 0
98 3 10 6.0347999999999999e-02 2.4192506263485065e+01 1.3609947384755959e+01 -1.6359996219898790e+01 0 0 0
96 3 3 -7.7549000000000007e-02 2.3583102348516917e+01 1.3696193560555912e+01 -1.7267948903489597e+01 0 0 0
49 2 3 1.4573900000000001e-01 1.6299049119125250e+01 1.3452542350872267e+01 -2.1704693560715782e-01 0 0 0
100 3 10 7.9554000000000000e-02 2.4587041220784222e+01 1.5496753417747396e+01 -1.7932787041564779e+01 0 0 0
97 3 10 6.0347999999999999e-02 2.3417067551122798e+01 1.2676560585717464e+01 -1.7636690890181484e+01 0 0 0
72 3 3 -1.1909300000000000e-01 1.5012215452879188e+01 1.2478661688349629e+01 -1.0462702996023708e+01 0 0 0
99 3 3 -1.2601799999999999e-01 2.4395144893543943e+01 1.4490238692078460e+01 -1.8324314201033573e+01 0 0 0
50 2 12 5.8992000000000003e-02 1.7316505587159973e+01 1.3392270390311865e+01 -6.2243469622983127e-01 0 0 0
71 2 12 5.8992000000000003e-02 1.5424378376431564e+01 1.0919618332216359e+01 -9.0006377431710263e+00 0 0 0
102 3 1 6.3794899999999999e-01 2.5742274357892441e+01 1.3858902291555871e+01 -1.8722546408569301e+01 0 0 0
52 2 13 -3.8777099999999998e-01 1.5384689782087543e+01 1.2594503379155405e+01 -9.0875127215073803e-01 0 0 0
69 2 3 1.4573900000000001e-01 1.4550840096681599e+01 1.1415601464180881e+01 -9.4412296367382993e+00 0 0 0
46 2 3 -1.1135800000000000e-01 1.6371068871276627e+01 1.2956388497715043e+01 1.2351591449930055e+00 0 0 0
29 1 12 7.1429000000000006e-02 1.5474349363596515e+01 9.8255658254942766e+00 1.4441066175044455e+00 0 0 0
53 2 1 7.6876299999999997e-01 1.4965445399250429e+01 1.2916259552780229e+01 -2.1510733946350911e+00 0 0 0
51 2 12 5.8992000000000003e-02 1.5956420227851966e+01 1.4494535611212221e+01 -2.2376246680659051e-01 0 0 0
54 2 8 -5.7660500000000003e-01 1.5341427309348136e+01 1.3889907501022936e+01 -2.7606208452569376e+00 0 0 0
47 2 10 7.1608000000000005e-02 1.5356993369716823e+01 1.2991033127499197e+01 1.6518607609776552e+00 0 0 0
45 1 12 5.5878999999999998e-02 1.8289126173498246e+01 1.3945535889582633e+01 1.6139187586904740e+00 0 0 0
107 3 12 5.1756000000000003e-02 2.8385960629528249e+01 1.4108030229340422e+01 -1.9107677111974752e+01 0 0 0
221 7 12 5.1909999999999998e-02 5.9636140296934187e+01 -1.1731985645902729e+01 -6.3408282752242144e+01 0 1 0
220 7 12 5.1909999999999998e-02 5.7985400950040471e+01 -1.2367061175496678e+01 -6.3525544283692902e+01 0 1 0
219 7 3 1.3996600000000001e-01 5.8918825056333858e+01 -1.2425389914746848e+01 -6.2952389151058028e+01 0 1 0
218 7 10 5.3918000000000001e-02 5.8043620408405602e+01 -1.1150294305310007e+01 -6.1439465729469703e+01 0 1 0
216 7 3 -8.6049000000000000e-02 5.8665124428432762e+01 -1.2053197356672898e+01 -6.1480556515933195e+01 0 1 0
217 7 10 5.3918000000000001e-02 5.9615745903507076e+01 -1.1815252217047972e+01 -6.0987717260167337e+01 0 1 0
167 5 10 4.4679999999999997e-02 4.4106082343651096e+01 -9.4876088278092574e+00 -4.2255014483036618e+01 0 1 0
181 6 10 5.0744999999999998e-02 4.9524882361402383e+01 -1.2022307442936658e+01 -4.6838256825475995e+01 0 1 0
173 5 10 7.9554000000000000e-02 4.5301675154771324e+01 -9.9833622578905725e+00 -4.4682012061405487e+01 0 1 0
188 6 10 5.9841999999999999e-02 5.0455971346499908e+01 -1.1110068255260762e+01 -4.9729902454127682e+01 0 1 0
182 6 10 5.0744999999999998e-02 4.8566039115349874e+01 -1.0965138374204855e+01 -4.7877055323356174e+01 0 1 0
175 5 8 -5.3809799999999997e-01 4.5241759426924325e+01 -1.2952897283022102e+01 -4.5281260929622150e+01 0 1 0
169 5 10 6.0347999999999999e-02 4.3801702789595950e+01 -1.1620503641754421e+01 -4.3420151470690016e+01 0 1 0
174 5 1 6.3794899999999999e-01 4.5948987632191958e+01 -1.1956894448888978e+01 -4.5219121880957815e+01 0 1 0
201 6 3 -7.7549000000000007e-02 5.5365198745756800e+01 -1.2948279378795057e+01 -5.5090222923210248e+01 0 1 0
186 6 3 -7.8537999999999997e-02 5.0609953758542829e+01 -1.2142644801265559e+01 -4.9393354234943089e+01 0 1 0
197 6 12 5.2766000000000000e-02 5.3862189562279937e+01 -1.1435878271784279e+01 -5.3198860952577959e+01 0 1 0
203 6 10 4.4679999999999997e-02 5.5383474829875993e+01 -1.1867938675045403e+01 -5.5279219110280337e+01 0 1 0
172 5 10 7.9554000000000000e-02 4.6692821420771907e+01 -1.0594383743295309e+01 -4.3757016437902394e+01 0 1 0
176 5 13 -4.4007200000000002e-01 4.7019215984340590e+01 -1.1676763871670234e+01 -4.6012033773809421e+01 0 1 0
171 5 3 -1.2601799999999999e-01 4.5718216442659873e+01 -1.0865742774877079e+01 -4.4180925652964191e+01 0 1 0
209 6 10 7.9554000000000000e-02 5.6242698867451566e+01 -1.1914034111400797e+01 -5.7521900531699330e+01 0 1 0
212 6 13 -4.4007200000000002e-01 5.7589340290681307e+01 -1.2764425101365298e+01 -5.9445650927888721e+01 0 1 0
166 5 10 4.4679999999999997e-02 4.5607454428270110e+01 -1.0016986277297454e+01 -4.1488604773420491e+01 0 1 0
183 6 3 -7.4581999999999996e-02 4.9275057333696871e+01 -1.2751575050696594e+01 -4.8868582549136093e+01 0 1 0
177 5 3 1.3990200000000000e-01 4.7445155880149542e+01 -1.2627583162211801e+01 -4.7023689567741016e+01 0 1 0
180 6 3 -1.1909300000000000e-01 4.8748790351726029e+01 -1.2014072363717036e+01 -4.7613371646677265e+01 0 1 0
168 5 3 -7.7549000000000007e-02 4.4797135681214527e+01 -1.1372791687299657e+01 -4.3031639236138304e+01 0 1 0
178 5 12 5.1756000000000003e-02 4.6682934379491400e+01 -1.2740704092516360e+01 -4.7804337791499208e+01 0 1 0
170 5 10 6.0347999999999999e-02 4.5214476395819780e+01 -1.2308110042355130e+01 -4.2638961361939195e+01 0 1 0
195 6 3 1.4091300000000001e-01 5.3912693932771170e+01 -1.2516905063316287e+01 -5.3019919636063534e+01 0 1 0
207 6 3 -1.2601799999999999e-01 5.6569343878413918e+01 -1.2941562957070483e+01 -5.7320214840211605e+01 0 1 0
163 5 10 5.7820999999999997e-02 4.2884792710377809e+01 -1.1386736192795134e+01 -4.1084869802760338e+01 0 1 0
193 6 8 -5.3710899999999995e-01 5.3164694944516150e+01 -1.1599425643887376e+01 -5.0587597814279363e+01 0 1 0
164 5 10 5.7820999999999997e-02 4.4402401895673847e+01 -1.1838956997435524e+01 -4.0310223670433331e+01 0 1 0
165 5 3 -7.7549000000000007e-02 4.4640922731982769e+01 -1.0365619658424379e+01 -4.1872611096081783e+01 0 1 0
208 6 10 7.9554000000000000e-02 5.7525488079684649e+01 -1.2870968868956131e+01 -5.6787303636450829e+01 0 1 0
162 5 3 -8.4473000000000006e-02 4.3833318273303476e+01 -1.0988173151353674e+01 -4.0704558918690225e+01 0 1 0
187 6 10 5.9841999999999999e-02 5.1348377990237083e+01 -1.2099909496364836e+01 -4.8583358581880375e+01 0 1 0
196 6 12 5.2766000000000000e-02 5.4789165582304491e+01 -1.2733677766281772e+01 -5.2397025862680877e+01 0 1 0
192 6 1 6.3895999999999997e-01 5.2465621163906498e+01 -1.2434492349152240e+01 -5.1123972457406680e+01 0 1 0
199 6 10 5.7820999999999997e-02 5.3185177250344836e+01 -1.3011430185653905e+01 -5.5017260183402058e+01 0 1 0
194 6 13 -4.3908300000000000e-01 5.2734581528049290e+01 -1.2967851959087122e+01 -5.2344979912091432e+01 0 1 0
189 6 3 -1.2601799999999999e-01 5.1182580013210845e+01 -1.2995757845359066e+01 -5.0557129744176152e+01 0 1 0
184 6 10 4.3163000000000000e-02 4.8530178931645992e+01 -1.2677304497533173e+01 -4.9670349136825109e+01 0 1 0
157 5 8 -5.3710899999999995e-01 4.2177921946443306e+01 -8.8638328136933602e+00 -3.7424130526184726e+01 0 1 0
152 5 10 5.9841999999999999e-02 4.0039456438293804e+01 -9.8543267753328756e+00 -3.5721538936175691e+01 0 1 0
151 5 10 5.9841999999999999e-02 4.1558294420318795e+01 -9.8208865000035299e+00 -3.4802528283355073e+01 0 1 0
156 5 1 6.3895999999999997e-01 4.2197637599507026e+01 -1.0078560232231077e+01 -3.7533409621005930e+01 0 1 0
145 5 10 5.0744999999999998e-02 4.0289092167545597e+01 -1.0316138148487825e+01 -3.2640443518917991e+01 0 1 0
150 5 3 -7.8537999999999997e-02 4.0865205636954229e+01 -1.0472557391022590e+01 -3.5348552640247064e+01 0 1 0
158 5 13 -4.3908300000000000e-01 4.2755583455152099e+01 -1.0719180822512826e+01 -3.8593079111362073e+01 0 1 0
153 5 3 -1.2601799999999999e-01 4.1635384660557143e+01 -1.1100065964916851e+01 -3.6532341051919346e+01 0 1 0
144 5 3 -1.1909300000000000e-01 3.9583343522926270e+01 -1.0965055550493764e+01 -3.3173373782662836e+01 0 1 0
160 5 12 5.2766000000000000e-02 4.4458397239666112e+01 -9.6085162386753407e+00 -3.9119349355166449e+01 0 1 0
155 5 10 7.9554000000000000e-02 4.2468678342509229e+01 -1.1708894448237885e+01 -3.6160670327330863e+01 0 1 0
147 5 3 -7.4581999999999996e-02 4.0299326118295866e+01 -1.1561790408197163e+01 -3.4401483034752133e+01 0 1 0
146 5 10 5.0744999999999998e-02 3.8743955167116781e+01 -1.0333593480354402e+01 -3.3489399813517153e+01 0 1 0
141 4 3 1.3990200000000000e-01 3.9098822508344078e+01 -1.2107656437174933e+01 -3.2235207244766130e+01 0 1 0
154 5 10 7.9554000000000000e-02 4.0965075115892674e+01 -1.1776687288455966e+01 -3.7076453456536413e+01 0 1 0
149 5 10 4.3163000000000000e-02 4.1116016038519994e+01 -1.2200807233662221e+01 -3.4043901322356490e+01 0 1 0
159 5 3 1.4091300000000001e-01 4.3530933315375613e+01 -9.9922987273828010e+00 -3.9561742032105329e+01 0 1 0
148 5 10 4.3163000000000000e-02 3.9601448174084133e+01 -1.2211805617952839e+01 -3.4943365136493895e+01 0 1 0
143 4 12 5.1756000000000003e-02 3.9966731591025145e+01 -1.2631715605771070e+01 -3.1816536225818695e+01 0 1 0
140 4 13 -4.4007200000000002e-01 3.8296335373286084e+01 -1.1551006737799751e+01 -3.1182950330556750e+01 0 1 0
142 4 12 5.1756000000000003e-02 3.8508919697814854e+01 -1.2838246972918856e+01 -3.2802165579556387e+01 0 1 0
161 5 12 5.2766000000000000e-02 4.2963291830068428e+01 -9.1410371575320841e+00 -3.9957123485735721e+01 0 1 0
290 9 10 5.3918000000000001e-02 5.5467480027377547e+01 4.2653464139769817e+00 -8.5411686955431918e+01 0 0 0
283 8 10 6.0947000000000001e-02 5.6644691678804122e+01 3.9316423613160296e+00 -8.2973750103137206e+01 0 0 0
293 9 12 5.1909999999999998e-02 5.5697883476090240e+01 4.8231726790511082e+00 -8.7805214464489694e+01 0 0 0
289 9 10 5.3918000000000001e-02 5.6391059295329811e+01 5.7441816136950585e+00 -8.5570768664742246e+01 0 0 0
288 9 3 -8.6049000000000000e-02 5.6430446750137861e+01 4.6634631830139277e+00 -8.5754305900116961e+01 0 0 0
291 9 3 1.3996600000000001e-01 5.6576358368679138e+01 4.4389724751920951e+00 -8.7272427756243374e+01 0 0 0
292 9 12 5.1909999999999998e-02 5.6651191953129214e+01 3.3591250039373577e+00 -8.7449963621564365e+01 0 0 0
287 8 10 3.9861000000000001e-02 5.7493239996905245e+01 2.9135665026980622e+00 -8.5035298275098583e+01 0 0 0
282 8 3 -7.8080999999999998e-02 5.7524044311574812e+01 4.3912753124958996e+00 -8.3441367583062416e+01 0 0 0
285 8 3 -7.8080999999999998e-02 5.7560359926997435e+01 4.0038912936363147e+00 -8.4935918320934363e+01 0 0 0
284 8 10 6.0947000000000001e-02 5.7381545146849277e+01 5.4739703977503247e+00 -8.3338144763411762e+01 0 0 0
281 8 10 7.9020000000000007e-02 5.9011563207894810e+01 2.9212516813683003e+00 -8.2777725470138009e+01 0 0 0
279 8 3 -1.2688199999999999e-01 5.8793029664811542e+01 3.9893162593957001e+00 -8.2656602566885198e+01 0 0 0
296 9 8 -5.3979900000000003e-01 5.7667790806852338e+01 4.1673955837875205e+00 -8.9840947434998256e+01 0 0 0
294 9 13 -4.4508399999999998e-01 5.7762075818381547e+01 5.0966798247224716e+00 -8.7732972543351281e+01 0 0 0
286 8 10 3.9861000000000001e-02 5.8531048898238296e+01 4.2974141755582203e+00 -8.5354005451685751e+01 0 0 0
295 9 1 6.3366500000000003e-01 5.8205036334333627e+01 4.8790060808407496e+00 -8.9005743993205300e+01 0 0 0
280 8 10 7.9020000000000007e-02 5.9660580417463692e+01 4.5523104299839403e+00 -8.3022092464762778e+01 0 0 0
302 9 10 5.9943000000000003e-02 5.8971680594955046e+01 6.6349178310907213e+00 -9.1119829393970363e+01 0 0 0
297 9 3 -1.2787799999999999e-01 5.9503741943244933e+01 5.6399753715593413e+00 -8.9228565480322942e+01 0 0 0
301 9 10 5.9943000000000003e-02 5.9784121260374278e+01 5.0790374671604290e+00 -9.1304103048069905e+01 0 0 0
300 9 3 -7.8080999999999998e-02 5.9768850725624588e+01 6.0018235248515843e+00 -9.0711294214907937e+01 0 0 0
298 9 10 8.0023999999999998e-02 5.9476983418527595e+01 6.5602496755278565e+00 -8.8632269583296605e+01 0 0 0
299 9 10 8.0023999999999998e-02 6.0320634710805081e+01 5.0135803473520326e+00 -8.8849744823607423e+01 0 0 0
308 9 10 5.7933999999999999e-02 6.0860313547704919e+01 7.3526932237183509e+00 -9.2885721774514536e+01 0 0 0
304 9 10 4.3878000000000000e-02 6.1069418686849616e+01 7.7049761856805858e+00 -9.0361985354383179e+01 0 0 0
303 9 3 -7.8080999999999998e-02 6.1142756428749635e+01 6.7181577627339557e+00 -9.0835272356005447e+01 0 0 0
270 8 3 -8.5053000000000004e-02 6.1129995644125970e+01 3.8828053299538148e+00 -7.8467691194803322e+01 0 0 0
273 8 3 1.4097100000000001e-01 5.9707335723728647e+01 4.1134516237256200e+00 -7.9005424211191979e+01 0 0 0
274 8 12 5.1909999999999998e-02 5.9016477853406101e+01 3.3754182210232138e+00 -7.8579734524269654e+01 0 0 0
275 8 12 5.1909999999999998e-02 5.9358047336975929e+01 5.1108895187904224e+00 -7.8711647291719103e+01 0 0 0
227 7 10 8.0023999999999998e-02 5.9538232477430896e+01 1.3895028687142496e+01 -6.3496226215782976e+01 0 0 0
222 7 13 -4.4508399999999998e-01 5.9418116793672837e+01 1.6495256431281241e+01 -6.2994955628929588e+01 0 0 0
276 8 13 -4.4508399999999998e-01 5.9747273493567093e+01 3.9869801267136786e+00 -8.0446123770761560e+01 0 0 0
214 6 12 5.1756000000000003e-02 5.7123630018910276e+01 1.6688190448891895e+01 -6.1312539378686445e+01 0 0 0
269 8 10 4.3878000000000000e-02 6.0908655277278143e+01 5.0254589452463847e+00 -7.6645210019193897e+01 0 0 0
268 8 10 4.3878000000000000e-02 6.0542349891856034e+01 3.3053393099299129e+00 -7.6462322060910395e+01 0 0 0
228 7 3 -7.8080999999999998e-02 6.0713440986195309e+01 1.3829918762277970e+01 -6.5354269705829807e+01 0 0 0
277 8 1 6.3366500000000003e-01 5.8619960337112929e+01 4.2404739483100720e+00 -8.1157327487467640e+01 0 0 0
278 8 8 -5.3880300000000003e-01 5.7569249197377800e+01 4.5330492234164979e+00 -8.0639468820049998e+01 0 0 0
233 7 10 4.3878000000000000e-02 6.0276834820986181e+01 1.1784586297602985e+01 -6.4753620885437286e+01 0 0 0
267 8 3 -7.8080999999999998e-02 6.1234369144842532e+01 4.0171583285291668e+00 -7.6928811769652356e+01 0 0 0
229 7 10 5.9943000000000003e-02 5.9913625982807957e+01 1.3896353961745000e+01 -6.6101980836414825e+01 0 0 0
224 7 8 -5.3979900000000003e-01 5.9353014637542515e+01 1.6447766045632953e+01 -6.5265319455303754e+01 0 0 0
223 7 1 6.3366500000000003e-01 5.9623659059396815e+01 1.5902012546231994e+01 -6.4207824154439621e+01 0 0 0
225 7 3 -1.2787799999999999e-01 6.0262797400987722e+01 1.4517657821617121e+01 -6.4035232934154067e+01 0 0 0
235 7 10 5.7933999999999999e-02 6.0814558289195233e+01 1.1705355726534393e+01 -6.7202105098362992e+01 0 0 0
231 7 3 -7.8080999999999998e-02 6.1134105143406984e+01 1.2341096574333790e+01 -6.5151833788607291e+01 0 0 0
239 7 12 5.1909999999999998e-02 6.1083617411460096e+01 9.5897247402894799e+00 -6.5859822239710866e+01 0 0 0
226 7 10 8.0023999999999998e-02 6.1135949412943546e+01 1.4642258137474126e+01 -6.3383105695568688e+01 0 0 0
272 8 10 5.7933999999999999e-02 6.1442685212257544e+01 2.8776660235684250e+00 -7.8776089993018900e+01 0 0 0
190 6 10 7.9554000000000000e-02 5.0444765050337331e+01 1.7187293646423541e+01 -5.1363973403805929e+01 0 0 0
191 6 10 7.9554000000000000e-02 5.1416608655908661e+01 1.6260442714246576e+01 -5.0214200703114315e+01 0 0 0
200 6 10 5.7820999999999997e-02 5.3949599312019657e+01 1.5909033023542374e+01 -5.4195176000366345e+01 0 0 0
179 5 12 5.1756000000000003e-02 4.7646418977468670e+01 1.6658092272524861e+01 -4.6586831009958260e+01 0 0 0
206 6 10 6.0347999999999999e-02 5.5764069844651985e+01 1.5533974808743277e+01 -5.6281341000642314e+01 0 0 0
211 6 8 -5.3809799999999997e-01 5.6390776897150786e+01 1.5627510699724471e+01 -5.9065925163127005e+01 0 0 0
204 6 3 -7.7549000000000007e-02 5.5504097241118998e+01 1.6586237149705553e+01 -5.6449709114074338e+01 0 0 0
185 6 10 4.3163000000000000e-02 4.9398727913142551e+01 1.6452572309032952e+01 -4.8647975916965819e+01 0 0 0
210 6 1 6.3794899999999999e-01 5.6852869053681673e+01 1.6681094027920871e+01 -5.8676733151312590e+01 0 0 0
215 6 12 5.1756000000000003e-02 5.8684647659943764e+01 1.6217506387260237e+01 -6.0609722953434499e+01 0 0 0
213 6 3 1.3990200000000000e-01 5.7986151299428869e+01 1.7052942856239532e+01 -6.0741398124531663e+01 0 0 0
198 6 3 -8.4473000000000006e-02 5.4024025184542026e+01 1.6990305563847567e+01 -5.4363995706368755e+01 0 0 0
205 6 10 6.0347999999999999e-02 5.4547773700575576e+01 1.6580606319866281e+01 -5.6986927123626117e+01 0 0 0
202 6 10 4.4679999999999997e-02 5.6218458820915018e+01 1.7092458747175016e+01 -5.4440693259376275e+01 0 0 0