Untitled

430 atoms
431 bonds
796 angles
1115 dihedrals
0 impropers

13 atom types
431 bond types
796 angle types
1115 dihedral types

 -8.8600000  84.8195000 xlo xhi
-12.9900000  17.1895000 ylo yhi
-123.3300000   1.5512000 zlo zhi
  0.0000000   0.0000000   0.0000000 xy xz yz

Masses

1  12.0100000
2  14.0100000
3  12.0100000
4  12.0100000
5  14.0100000
6  12.0100000
7  14.0100000
8  16.0000000
9   1.0080000
10   1.0080000
11   1.0080000
12   1.0080000
13  16.0000000

Bond Coeffs

1 harmonic    4.27605163e+02    1.37890000e+00
2 harmonic    6.37703155e+02    1.21830000e+00
3 harmonic    3.90798279e+02    1.35840000e+00
4 harmonic    3.28704589e+02    1.46190000e+00
5 harmonic    4.03202677e+02    1.01290000e+00
6 harmonic    3.00896272e+02    1.53750000e+00
7 harmonic    3.30604685e+02    1.09690000e+00
8 harmonic    3.30604685e+02    1.09690000e+00
9 harmonic    3.00896272e+02    1.53750000e+00
10 harmonic    3.30604685e+02    1.09690000e+00
11 harmonic    3.30604685e+02    1.09690000e+00
12 harmonic    3.00896272e+02    1.53750000e+00
13 harmonic    3.30604685e+02    1.09690000e+00
14 harmonic    3.30604685e+02    1.09690000e+00
15 harmonic    3.00896272e+02    1.53750000e+00
16 harmonic    3.30604685e+02    1.09690000e+00
17 harmonic    3.30604685e+02    1.09690000e+00
18 harmonic    3.00896272e+02    1.53750000e+00
19 harmonic    3.30604685e+02    1.09690000e+00
20 harmonic    3.30604685e+02    1.09690000e+00
21 harmonic    3.28704589e+02    1.46190000e+00
22 harmonic    3.30604685e+02    1.09690000e+00
23 harmonic    3.30604685e+02    1.09690000e+00
24 harmonic    4.27605163e+02    1.37890000e+00
25 harmonic    4.03202677e+02    1.01290000e+00
26 harmonic    4.27605163e+02    1.37890000e+00
27 harmonic    6.37703155e+02    1.21830000e+00
28 harmonic    4.25095602e+02    1.38070000e+00
29 harmonic    4.03202677e+02    1.01290000e+00
30 harmonic    4.25800669e+02    1.38020000e+00
31 harmonic    5.25394359e+02    1.31720000e+00
32 harmonic    4.25800669e+02    1.38020000e+00
33 harmonic    4.08401052e+02    1.01000000e+00
34 harmonic    5.00896272e+02    1.37290000e+00
35 harmonic    3.34799235e+02    1.50150000e+00
36 harmonic    3.70996654e+02    1.46760000e+00
37 harmonic    3.49103728e+02    1.08370000e+00
38 harmonic    4.16897706e+02    1.38670000e+00
39 harmonic    6.37703155e+02    1.21830000e+00
40 harmonic    3.30604685e+02    1.09690000e+00
41 harmonic    3.30604685e+02    1.09690000e+00
42 harmonic    3.30604685e+02    1.09690000e+00
43 harmonic    3.08604207e+02    1.43160000e+00
44 harmonic    3.30604685e+02    1.09690000e+00
45 harmonic    3.30604685e+02    1.09690000e+00
46 harmonic    3.00896272e+02    1.53750000e+00
47 harmonic    3.30604685e+02    1.09690000e+00
48 harmonic    3.30604685e+02    1.09690000e+00
49 harmonic    3.00896272e+02    1.53750000e+00
50 harmonic    3.30604685e+02    1.09690000e+00
51 harmonic    3.30604685e+02    1.09690000e+00
52 harmonic    3.08604207e+02    1.43160000e+00
53 harmonic    3.90798279e+02    1.35840000e+00
54 harmonic    6.37703155e+02    1.21830000e+00
55 harmonic    3.90798279e+02    1.35840000e+00
56 harmonic    3.08604207e+02    1.43160000e+00
57 harmonic    3.30604685e+02    1.09690000e+00
58 harmonic    3.30604685e+02    1.09690000e+00
59 harmonic    3.00896272e+02    1.53750000e+00
60 harmonic    3.30604685e+02    1.09690000e+00
61 harmonic    3.30604685e+02    1.09690000e+00
62 harmonic    3.00896272e+02    1.53750000e+00
63 harmonic    3.30604685e+02    1.09690000e+00
64 harmonic    3.30604685e+02    1.09690000e+00
65 harmonic    3.08604207e+02    1.43160000e+00
66 harmonic    3.90798279e+02    1.35840000e+00
67 harmonic    6.37703155e+02    1.21830000e+00
68 harmonic    3.90798279e+02    1.35840000e+00
69 harmonic    3.08604207e+02    1.43160000e+00
70 harmonic    3.30604685e+02    1.09690000e+00
71 harmonic    3.30604685e+02    1.09690000e+00
72 harmonic    3.00896272e+02    1.53750000e+00
73 harmonic    3.30604685e+02    1.09690000e+00
74 harmonic    3.30604685e+02    1.09690000e+00
75 harmonic    3.00896272e+02    1.53750000e+00
76 harmonic    3.30604685e+02    1.09690000e+00
77 harmonic    3.30604685e+02    1.09690000e+00
78 harmonic    3.00896272e+02    1.53750000e+00
79 harmonic    3.30604685e+02    1.09690000e+00
80 harmonic    3.30604685e+02    1.09690000e+00
81 harmonic    3.00896272e+02    1.53750000e+00
82 harmonic    3.30604685e+02    1.09690000e+00
83 harmonic    3.30604685e+02    1.09690000e+00
84 harmonic    3.13001912e+02    1.52410000e+00
85 harmonic    6.37703155e+02    1.21830000e+00
86 harmonic    3.90798279e+02    1.35840000e+00
87 harmonic    3.08604207e+02    1.43160000e+00
88 harmonic    3.30604685e+02    1.09690000e+00
89 harmonic    3.30604685e+02    1.09690000e+00
90 harmonic    3.00896272e+02    1.53750000e+00
91 harmonic    3.30604685e+02    1.09690000e+00
92 harmonic    3.30604685e+02    1.09690000e+00
93 harmonic    3.00896272e+02    1.53750000e+00
94 harmonic    3.30604685e+02    1.09690000e+00
95 harmonic    3.30604685e+02    1.09690000e+00
96 harmonic    3.00896272e+02    1.53750000e+00
97 harmonic    3.30604685e+02    1.09690000e+00
98 harmonic    3.30604685e+02    1.09690000e+00
99 harmonic    3.00896272e+02    1.53750000e+00
100 harmonic    3.30604685e+02    1.09690000e+00
101 harmonic    3.30604685e+02    1.09690000e+00
102 harmonic    3.13001912e+02    1.52410000e+00
103 harmonic    6.37703155e+02    1.21830000e+00
104 harmonic    3.90798279e+02    1.35840000e+00
105 harmonic    3.08604207e+02    1.43160000e+00
106 harmonic    3.30604685e+02    1.09690000e+00
107 harmonic    3.30604685e+02    1.09690000e+00
108 harmonic    3.00896272e+02    1.53750000e+00
109 harmonic    3.30604685e+02    1.09690000e+00
110 harmonic    3.30604685e+02    1.09690000e+00
111 harmonic    3.00896272e+02    1.53750000e+00
112 harmonic    3.30604685e+02    1.09690000e+00
113 harmonic    3.30604685e+02    1.09690000e+00
114 harmonic    3.00896272e+02    1.53750000e+00
115 harmonic    3.30604685e+02    1.09690000e+00
116 harmonic    3.30604685e+02    1.09690000e+00
117 harmonic    3.00896272e+02    1.53750000e+00
118 harmonic    3.30604685e+02    1.09690000e+00
119 harmonic    3.30604685e+02    1.09690000e+00
120 harmonic    3.13001912e+02    1.52410000e+00
121 harmonic    6.37703155e+02    1.21830000e+00
122 harmonic    3.90798279e+02    1.35840000e+00
123 harmonic    3.08604207e+02    1.43160000e+00
124 harmonic    3.30604685e+02    1.09690000e+00
125 harmonic    3.30604685e+02    1.09690000e+00
126 harmonic    3.00896272e+02    1.53750000e+00
127 harmonic    3.30604685e+02    1.09690000e+00
128 harmonic    3.30604685e+02    1.09690000e+00
129 harmonic    3.00896272e+02    1.53750000e+00
130 harmonic    3.30604685e+02    1.09690000e+00
131 harmonic    3.30604685e+02    1.09690000e+00
132 harmonic    3.00896272e+02    1.53750000e+00
133 harmonic    3.30604685e+02    1.09690000e+00
134 harmonic    3.30604685e+02    1.09690000e+00
135 harmonic    3.00896272e+02    1.53750000e+00
136 harmonic    3.30604685e+02    1.09690000e+00
137 harmonic    3.30604685e+02    1.09690000e+00
138 harmonic    3.13001912e+02    1.52410000e+00
139 harmonic    6.37703155e+02    1.21830000e+00
140 harmonic    3.90798279e+02    1.35840000e+00
141 harmonic    3.08604207e+02    1.43160000e+00
142 harmonic    3.30604685e+02    1.09690000e+00
143 harmonic    3.30604685e+02    1.09690000e+00
144 harmonic    3.00896272e+02    1.53750000e+00
145 harmonic    3.30604685e+02    1.09690000e+00
146 harmonic    3.30604685e+02    1.09690000e+00
147 harmonic    3.00896272e+02    1.53750000e+00
148 harmonic    3.30604685e+02    1.09690000e+00
149 harmonic    3.30604685e+02    1.09690000e+00
150 harmonic    3.00896272e+02    1.53750000e+00
151 harmonic    3.30604685e+02    1.09690000e+00
152 harmonic    3.30604685e+02    1.09690000e+00
153 harmonic    3.00896272e+02    1.53750000e+00
154 harmonic    3.30604685e+02    1.09690000e+00
155 harmonic    3.30604685e+02    1.09690000e+00
156 harmonic    3.13001912e+02    1.52410000e+00
157 harmonic    6.37703155e+02    1.21830000e+00
158 harmonic    3.90798279e+02    1.35840000e+00
159 harmonic    3.08604207e+02    1.43160000e+00
160 harmonic    3.30604685e+02    1.09690000e+00
161 harmonic    3.30604685e+02    1.09690000e+00
162 harmonic    3.00896272e+02    1.53750000e+00
163 harmonic    3.30604685e+02    1.09690000e+00
164 harmonic    3.30604685e+02    1.09690000e+00
165 harmonic    3.00896272e+02    1.53750000e+00
166 harmonic    3.30604685e+02    1.09690000e+00
167 harmonic    3.30604685e+02    1.09690000e+00
168 harmonic    3.00896272e+02    1.53750000e+00
169 harmonic    3.30604685e+02    1.09690000e+00
170 harmonic    3.30604685e+02    1.09690000e+00
171 harmonic    3.00896272e+02    1.53750000e+00
172 harmonic    3.30604685e+02    1.09690000e+00
173 harmonic    3.30604685e+02    1.09690000e+00
174 harmonic    3.13001912e+02    1.52410000e+00
175 harmonic    6.37703155e+02    1.21830000e+00
176 harmonic    3.90798279e+02    1.35840000e+00
177 harmonic    3.08604207e+02    1.43160000e+00
178 harmonic    3.30604685e+02    1.09690000e+00
179 harmonic    3.30604685e+02    1.09690000e+00
180 harmonic    3.00896272e+02    1.53750000e+00
181 harmonic    3.30604685e+02    1.09690000e+00
182 harmonic    3.30604685e+02    1.09690000e+00
183 harmonic    3.00896272e+02    1.53750000e+00
184 harmonic    3.30604685e+02    1.09690000e+00
185 harmonic    3.30604685e+02    1.09690000e+00
186 harmonic    3.00896272e+02    1.53750000e+00
187 harmonic    3.30604685e+02    1.09690000e+00
188 harmonic    3.30604685e+02    1.09690000e+00
189 harmonic    3.00896272e+02    1.53750000e+00
190 harmonic    3.30604685e+02    1.09690000e+00
191 harmonic    3.30604685e+02    1.09690000e+00
192 harmonic    3.13001912e+02    1.52410000e+00
193 harmonic    6.37703155e+02    1.21830000e+00
194 harmonic    3.90798279e+02    1.35840000e+00
195 harmonic    3.08604207e+02    1.43160000e+00
196 harmonic    3.30604685e+02    1.09690000e+00
197 harmonic    3.30604685e+02    1.09690000e+00
198 harmonic    3.00896272e+02    1.53750000e+00
199 harmonic    3.30604685e+02    1.09690000e+00
200 harmonic    3.30604685e+02    1.09690000e+00
201 harmonic    3.00896272e+02    1.53750000e+00
202 harmonic    3.30604685e+02    1.09690000e+00
203 harmonic    3.30604685e+02    1.09690000e+00
204 harmonic    3.00896272e+02    1.53750000e+00
205 harmonic    3.30604685e+02    1.09690000e+00
206 harmonic    3.30604685e+02    1.09690000e+00
207 harmonic    3.00896272e+02    1.53750000e+00
208 harmonic    3.30604685e+02    1.09690000e+00
209 harmonic    3.30604685e+02    1.09690000e+00
210 harmonic    3.13001912e+02    1.52410000e+00
211 harmonic    6.37703155e+02    1.21830000e+00
212 harmonic    3.90798279e+02    1.35840000e+00
213 harmonic    3.08604207e+02    1.43160000e+00
214 harmonic    3.30604685e+02    1.09690000e+00
215 harmonic    3.30604685e+02    1.09690000e+00
216 harmonic    3.00896272e+02    1.53750000e+00
217 harmonic    3.30604685e+02    1.09690000e+00
218 harmonic    3.30604685e+02    1.09690000e+00
219 harmonic    3.00896272e+02    1.53750000e+00
220 harmonic    3.30604685e+02    1.09690000e+00
221 harmonic    3.30604685e+02    1.09690000e+00
222 harmonic    3.08604207e+02    1.43160000e+00
223 harmonic    3.90798279e+02    1.35840000e+00
224 harmonic    6.37703155e+02    1.21830000e+00
225 harmonic    3.13001912e+02    1.52410000e+00
226 harmonic    3.30604685e+02    1.09690000e+00
227 harmonic    3.30604685e+02    1.09690000e+00
228 harmonic    3.00896272e+02    1.53750000e+00
229 harmonic    3.30604685e+02    1.09690000e+00
230 harmonic    3.30604685e+02    1.09690000e+00
231 harmonic    3.00896272e+02    1.53750000e+00
232 harmonic    3.30604685e+02    1.09690000e+00
233 harmonic    3.30604685e+02    1.09690000e+00
234 harmonic    3.00896272e+02    1.53750000e+00
235 harmonic    3.30604685e+02    1.09690000e+00
236 harmonic    3.30604685e+02    1.09690000e+00
237 harmonic    3.00896272e+02    1.53750000e+00
238 harmonic    3.30604685e+02    1.09690000e+00
239 harmonic    3.30604685e+02    1.09690000e+00
240 harmonic    3.08604207e+02    1.43160000e+00
241 harmonic    3.90798279e+02    1.35840000e+00
242 harmonic    6.37703155e+02    1.21830000e+00
243 harmonic    3.13001912e+02    1.52410000e+00
244 harmonic    3.30604685e+02    1.09690000e+00
245 harmonic    3.30604685e+02    1.09690000e+00
246 harmonic    3.00896272e+02    1.53750000e+00
247 harmonic    3.30604685e+02    1.09690000e+00
248 harmonic    3.30604685e+02    1.09690000e+00
249 harmonic    3.00896272e+02    1.53750000e+00
250 harmonic    3.30604685e+02    1.09690000e+00
251 harmonic    3.30604685e+02    1.09690000e+00
252 harmonic    3.00896272e+02    1.53750000e+00
253 harmonic    3.30604685e+02    1.09690000e+00
254 harmonic    3.30604685e+02    1.09690000e+00
255 harmonic    3.00896272e+02    1.53750000e+00
256 harmonic    3.30604685e+02    1.09690000e+00
257 harmonic    3.30604685e+02    1.09690000e+00
258 harmonic    3.08604207e+02    1.43160000e+00
259 harmonic    3.90798279e+02    1.35840000e+00
260 harmonic    6.37703155e+02    1.21830000e+00
261 harmonic    3.13001912e+02    1.52410000e+00
262 harmonic    3.30604685e+02    1.09690000e+00
263 harmonic    3.30604685e+02    1.09690000e+00
264 harmonic    3.00896272e+02    1.53750000e+00
265 harmonic    3.30604685e+02    1.09690000e+00
266 harmonic    3.30604685e+02    1.09690000e+00
267 harmonic    3.00896272e+02    1.53750000e+00
268 harmonic    3.30604685e+02    1.09690000e+00
269 harmonic    3.30604685e+02    1.09690000e+00
270 harmonic    3.00896272e+02    1.53750000e+00
271 harmonic    3.30604685e+02    1.09690000e+00
272 harmonic    3.30604685e+02    1.09690000e+00
273 harmonic    3.00896272e+02    1.53750000e+00
274 harmonic    3.30604685e+02    1.09690000e+00
275 harmonic    3.30604685e+02    1.09690000e+00
276 harmonic    3.08604207e+02    1.43160000e+00
277 harmonic    3.90798279e+02    1.35840000e+00
278 harmonic    6.37703155e+02    1.21830000e+00
279 harmonic    3.13001912e+02    1.52410000e+00
280 harmonic    3.30604685e+02    1.09690000e+00
281 harmonic    3.30604685e+02    1.09690000e+00
282 harmonic    3.00896272e+02    1.53750000e+00
283 harmonic    3.30604685e+02    1.09690000e+00
284 harmonic    3.30604685e+02    1.09690000e+00
285 harmonic    3.00896272e+02    1.53750000e+00
286 harmonic    3.30604685e+02    1.09690000e+00
287 harmonic    3.30604685e+02    1.09690000e+00
288 harmonic    3.00896272e+02    1.53750000e+00
289 harmonic    3.30604685e+02    1.09690000e+00
290 harmonic    3.30604685e+02    1.09690000e+00
291 harmonic    3.00896272e+02    1.53750000e+00
292 harmonic    3.30604685e+02    1.09690000e+00
293 harmonic    3.30604685e+02    1.09690000e+00
294 harmonic    3.08604207e+02    1.43160000e+00
295 harmonic    3.90798279e+02    1.35840000e+00
296 harmonic    6.37703155e+02    1.21830000e+00
297 harmonic    3.13001912e+02    1.52410000e+00
298 harmonic    3.30604685e+02    1.09690000e+00
299 harmonic    3.30604685e+02    1.09690000e+00
300 harmonic    3.00896272e+02    1.53750000e+00
301 harmonic    3.30604685e+02    1.09690000e+00
302 harmonic    3.30604685e+02    1.09690000e+00
303 harmonic    3.00896272e+02    1.53750000e+00
304 harmonic    3.30604685e+02    1.09690000e+00
305 harmonic    3.30604685e+02    1.09690000e+00
306 harmonic    3.00896272e+02    1.53750000e+00
307 harmonic    3.30604685e+02    1.09690000e+00
308 harmonic    3.30604685e+02    1.09690000e+00
309 harmonic    3.00896272e+02    1.53750000e+00
310 harmonic    3.30604685e+02    1.09690000e+00
311 harmonic    3.30604685e+02    1.09690000e+00
312 harmonic    3.08604207e+02    1.43160000e+00
313 harmonic    3.90798279e+02    1.35840000e+00
314 harmonic    6.37703155e+02    1.21830000e+00
315 harmonic    3.13001912e+02    1.52410000e+00
316 harmonic    3.30604685e+02    1.09690000e+00
317 harmonic    3.30604685e+02    1.09690000e+00
318 harmonic    3.00896272e+02    1.53750000e+00
319 harmonic    3.30604685e+02    1.09690000e+00
320 harmonic    3.30604685e+02    1.09690000e+00
321 harmonic    3.00896272e+02    1.53750000e+00
322 harmonic    3.30604685e+02    1.09690000e+00
323 harmonic    3.30604685e+02    1.09690000e+00
324 harmonic    3.00896272e+02    1.53750000e+00
325 harmonic    3.30604685e+02    1.09690000e+00
326 harmonic    3.30604685e+02    1.09690000e+00
327 harmonic    3.00896272e+02    1.53750000e+00
328 harmonic    3.30604685e+02    1.09690000e+00
329 harmonic    3.30604685e+02    1.09690000e+00
330 harmonic    3.08604207e+02    1.43160000e+00
331 harmonic    3.90798279e+02    1.35840000e+00
332 harmonic    6.37703155e+02    1.21830000e+00
333 harmonic    3.13001912e+02    1.52410000e+00
334 harmonic    3.30604685e+02    1.09690000e+00
335 harmonic    3.30604685e+02    1.09690000e+00
336 harmonic    3.00896272e+02    1.53750000e+00
337 harmonic    3.30604685e+02    1.09690000e+00
338 harmonic    3.30604685e+02    1.09690000e+00
339 harmonic    3.00896272e+02    1.53750000e+00
340 harmonic    3.30604685e+02    1.09690000e+00
341 harmonic    3.30604685e+02    1.09690000e+00
342 harmonic    3.00896272e+02    1.53750000e+00
343 harmonic    3.30604685e+02    1.09690000e+00
344 harmonic    3.30604685e+02    1.09690000e+00
345 harmonic    3.00896272e+02    1.53750000e+00
346 harmonic    3.30604685e+02    1.09690000e+00
347 harmonic    3.30604685e+02    1.09690000e+00
348 harmonic    3.08604207e+02    1.43160000e+00
349 harmonic    3.90798279e+02    1.35840000e+00
350 harmonic    6.37703155e+02    1.21830000e+00
351 harmonic    3.13001912e+02    1.52410000e+00
352 harmonic    3.30604685e+02    1.09690000e+00
353 harmonic    3.30604685e+02    1.09690000e+00
354 harmonic    3.00896272e+02    1.53750000e+00
355 harmonic    3.30604685e+02    1.09690000e+00
356 harmonic    3.30604685e+02    1.09690000e+00
357 harmonic    3.00896272e+02    1.53750000e+00
358 harmonic    3.30604685e+02    1.09690000e+00
359 harmonic    3.30604685e+02    1.09690000e+00
360 harmonic    3.00896272e+02    1.53750000e+00
361 harmonic    3.30604685e+02    1.09690000e+00
362 harmonic    3.30604685e+02    1.09690000e+00
363 harmonic    3.00896272e+02    1.53750000e+00
364 harmonic    3.30604685e+02    1.09690000e+00
365 harmonic    3.30604685e+02    1.09690000e+00
366 harmonic    3.08604207e+02    1.43160000e+00
367 harmonic    3.90798279e+02    1.35840000e+00
368 harmonic    6.37703155e+02    1.21830000e+00
369 harmonic    3.90798279e+02    1.35840000e+00
370 harmonic    3.08604207e+02    1.43160000e+00
371 harmonic    3.30604685e+02    1.09690000e+00
372 harmonic    3.30604685e+02    1.09690000e+00
373 harmonic    3.00896272e+02    1.53750000e+00
374 harmonic    3.30604685e+02    1.09690000e+00
375 harmonic    3.30604685e+02    1.09690000e+00
376 harmonic    3.00896272e+02    1.53750000e+00
377 harmonic    3.30604685e+02    1.09690000e+00
378 harmonic    3.30604685e+02    1.09690000e+00
379 harmonic    3.08604207e+02    1.43160000e+00
380 harmonic    3.90798279e+02    1.35840000e+00
381 harmonic    6.37703155e+02    1.21830000e+00
382 harmonic    3.90798279e+02    1.35840000e+00
383 harmonic    3.08604207e+02    1.43160000e+00
384 harmonic    3.30604685e+02    1.09690000e+00
385 harmonic    3.30604685e+02    1.09690000e+00
386 harmonic    3.00896272e+02    1.53750000e+00
387 harmonic    3.30604685e+02    1.09690000e+00
388 harmonic    3.30604685e+02    1.09690000e+00
389 harmonic    3.08604207e+02    1.43160000e+00
390 harmonic    3.90798279e+02    1.35840000e+00
391 harmonic    4.27605163e+02    1.37890000e+00
392 harmonic    6.37703155e+02    1.21830000e+00
393 harmonic    3.28704589e+02    1.46190000e+00
394 harmonic    4.03202677e+02    1.01290000e+00
395 harmonic    3.00896272e+02    1.53750000e+00
396 harmonic    3.30604685e+02    1.09690000e+00
397 harmonic    3.30604685e+02    1.09690000e+00
398 harmonic    3.00896272e+02    1.53750000e+00
399 harmonic    3.30604685e+02    1.09690000e+00
400 harmonic    3.30604685e+02    1.09690000e+00
401 harmonic    3.00896272e+02    1.53750000e+00
402 harmonic    3.30604685e+02    1.09690000e+00
403 harmonic    3.30604685e+02    1.09690000e+00
404 harmonic    3.00896272e+02    1.53750000e+00
405 harmonic    3.30604685e+02    1.09690000e+00
406 harmonic    3.30604685e+02    1.09690000e+00
407 harmonic    3.00896272e+02    1.53750000e+00
408 harmonic    3.30604685e+02    1.09690000e+00
409 harmonic    3.30604685e+02    1.09690000e+00
410 harmonic    3.28704589e+02    1.46190000e+00
411 harmonic    3.30604685e+02    1.09690000e+00
412 harmonic    3.30604685e+02    1.09690000e+00
413 harmonic    4.27605163e+02    1.37890000e+00
414 harmonic    4.03202677e+02    1.01290000e+00
415 harmonic    4.27605163e+02    1.37890000e+00
416 harmonic    6.37703155e+02    1.21830000e+00
417 harmonic    4.25095602e+02    1.38070000e+00
418 harmonic    4.03202677e+02    1.01290000e+00
419 harmonic    4.25800669e+02    1.38020000e+00
420 harmonic    5.25394359e+02    1.31720000e+00
421 harmonic    4.25800669e+02    1.38020000e+00
422 harmonic    4.08401052e+02    1.01000000e+00
423 harmonic    5.00896272e+02    1.37290000e+00
424 harmonic    3.34799235e+02    1.50150000e+00
425 harmonic    3.70996654e+02    1.46760000e+00
426 harmonic    3.49103728e+02    1.08370000e+00
427 harmonic    4.16897706e+02    1.38670000e+00
428 harmonic    6.37703155e+02    1.21830000e+00
429 harmonic    3.30604685e+02    1.09690000e+00
430 harmonic    3.30604685e+02    1.09690000e+00
431 harmonic    3.30604685e+02    1.09690000e+00

Angle Coeffs

1 harmonic    6.33902964e+01    1.20690000e+02
2 harmonic    4.83305449e+01    1.17550000e+02
3 harmonic    6.32803537e+01    1.15980000e+02
4 harmonic    7.42196463e+01    1.23050000e+02
5 harmonic    7.53202677e+01    1.09220000e+02
6 harmonic    6.59094168e+01    1.11610000e+02
7 harmonic    4.98398662e+01    1.08880000e+02
8 harmonic    4.98398662e+01    1.08880000e+02
9 harmonic    4.57994742e+01    1.17680000e+02
10 harmonic    6.28597036e+01    1.11510000e+02
11 harmonic    4.63396272e+01    1.09800000e+02
12 harmonic    4.63396272e+01    1.09800000e+02
13 harmonic    4.63898184e+01    1.09560000e+02
14 harmonic    4.63898184e+01    1.09560000e+02
15 harmonic    6.28597036e+01    1.11510000e+02
16 harmonic    4.63396272e+01    1.09800000e+02
17 harmonic    4.63396272e+01    1.09800000e+02
18 harmonic    4.63396272e+01    1.09800000e+02
19 harmonic    4.63396272e+01    1.09800000e+02
20 harmonic    6.28597036e+01    1.11510000e+02
21 harmonic    4.63396272e+01    1.09800000e+02
22 harmonic    4.63396272e+01    1.09800000e+02
23 harmonic    4.63396272e+01    1.09800000e+02
24 harmonic    4.63396272e+01    1.09800000e+02
25 harmonic    6.28597036e+01    1.11510000e+02
26 harmonic    4.63396272e+01    1.09800000e+02
27 harmonic    4.63396272e+01    1.09800000e+02
28 harmonic    4.63396272e+01    1.09800000e+02
29 harmonic    4.63396272e+01    1.09800000e+02
30 harmonic    6.59094168e+01    1.11610000e+02
31 harmonic    4.63898184e+01    1.09560000e+02
32 harmonic    4.63898184e+01    1.09560000e+02
33 harmonic    4.63396272e+01    1.09800000e+02
34 harmonic    4.63396272e+01    1.09800000e+02
35 harmonic    6.33902964e+01    1.20690000e+02
36 harmonic    4.57994742e+01    1.17680000e+02
37 harmonic    4.98398662e+01    1.08880000e+02
38 harmonic    4.98398662e+01    1.08880000e+02
39 harmonic    7.29003346e+01    1.13560000e+02
40 harmonic    7.42196463e+01    1.23050000e+02
41 harmonic    4.83305449e+01    1.17550000e+02
42 harmonic    6.46797323e+01    1.23270000e+02
43 harmonic    4.83305449e+01    1.17550000e+02
44 harmonic    7.42196463e+01    1.23050000e+02
45 harmonic    7.02198853e+01    1.22120000e+02
46 harmonic    7.15200765e+01    1.23000000e+02
47 harmonic    4.79194551e+01    1.19260000e+02
48 harmonic    6.84799235e+01    1.09900000e+02
49 harmonic    4.67495220e+01    1.25500000e+02
50 harmonic    6.66802103e+01    1.20490000e+02
51 harmonic    7.48996176e+01    1.12220000e+02
52 harmonic    7.34297323e+01    1.06990000e+02
53 harmonic    6.52700765e+01    1.22730000e+02
54 harmonic    4.67495220e+01    1.25500000e+02
55 harmonic    6.50896272e+01    1.21350000e+02
56 harmonic    4.85396750e+01    1.21760000e+02
57 harmonic    4.71797323e+01    1.10490000e+02
58 harmonic    4.71797323e+01    1.10490000e+02
59 harmonic    4.71797323e+01    1.10490000e+02
60 harmonic    6.47096080e+01    1.19450000e+02
61 harmonic    6.85803059e+01    1.13750000e+02
62 harmonic    6.91395793e+01    1.23930000e+02
63 harmonic    4.69204111e+01    1.16640000e+02
64 harmonic    7.39101338e+01    1.23180000e+02
65 harmonic    3.94000956e+01    1.07580000e+02
66 harmonic    3.94000956e+01    1.07580000e+02
67 harmonic    3.94000956e+01    1.07580000e+02
68 harmonic    3.92399618e+01    1.08460000e+02
69 harmonic    3.94000956e+01    1.07580000e+02
70 harmonic    3.94000956e+01    1.07580000e+02
71 harmonic    3.94000956e+01    1.07580000e+02
72 harmonic    3.94000956e+01    1.07580000e+02
73 harmonic    3.92399618e+01    1.08460000e+02
74 harmonic    7.53202677e+01    1.23250000e+02
75 harmonic    5.07994742e+01    1.09780000e+02
76 harmonic    5.07994742e+01    1.09780000e+02
77 harmonic    6.79995220e+01    1.07970000e+02
78 harmonic    4.63396272e+01    1.09800000e+02
79 harmonic    4.63396272e+01    1.09800000e+02
80 harmonic    6.28597036e+01    1.11510000e+02
81 harmonic    3.92399618e+01    1.08460000e+02
82 harmonic    4.63898184e+01    1.09560000e+02
83 harmonic    4.63898184e+01    1.09560000e+02
84 harmonic    4.63898184e+01    1.09560000e+02
85 harmonic    4.63898184e+01    1.09560000e+02
86 harmonic    6.79995220e+01    1.07970000e+02
87 harmonic    3.94000956e+01    1.07580000e+02
88 harmonic    4.63396272e+01    1.09800000e+02
89 harmonic    4.63396272e+01    1.09800000e+02
90 harmonic    6.32803537e+01    1.15980000e+02
91 harmonic    3.92399618e+01    1.08460000e+02
92 harmonic    5.07994742e+01    1.09780000e+02
93 harmonic    5.07994742e+01    1.09780000e+02
94 harmonic    7.53202677e+01    1.23250000e+02
95 harmonic    7.56202199e+01    1.11290000e+02
96 harmonic    6.32803537e+01    1.15980000e+02
97 harmonic    7.53202677e+01    1.23250000e+02
98 harmonic    5.07994742e+01    1.09780000e+02
99 harmonic    5.07994742e+01    1.09780000e+02
100 harmonic    6.79995220e+01    1.07970000e+02
101 harmonic    4.63396272e+01    1.09800000e+02
102 harmonic    4.63396272e+01    1.09800000e+02
103 harmonic    6.28597036e+01    1.11510000e+02
104 harmonic    3.92399618e+01    1.08460000e+02
105 harmonic    4.63898184e+01    1.09560000e+02
106 harmonic    4.63898184e+01    1.09560000e+02
107 harmonic    4.63898184e+01    1.09560000e+02
108 harmonic    4.63898184e+01    1.09560000e+02
109 harmonic    6.79995220e+01    1.07970000e+02
110 harmonic    3.94000956e+01    1.07580000e+02
111 harmonic    4.63396272e+01    1.09800000e+02
112 harmonic    4.63396272e+01    1.09800000e+02
113 harmonic    6.32803537e+01    1.15980000e+02
114 harmonic    3.92399618e+01    1.08460000e+02
115 harmonic    5.07994742e+01    1.09780000e+02
116 harmonic    5.07994742e+01    1.09780000e+02
117 harmonic    7.53202677e+01    1.23250000e+02
118 harmonic    7.56202199e+01    1.11290000e+02
119 harmonic    6.32803537e+01    1.15980000e+02
120 harmonic    7.53202677e+01    1.23250000e+02
121 harmonic    5.07994742e+01    1.09780000e+02
122 harmonic    5.07994742e+01    1.09780000e+02
123 harmonic    6.79995220e+01    1.07970000e+02
124 harmonic    4.63396272e+01    1.09800000e+02
125 harmonic    4.63396272e+01    1.09800000e+02
126 harmonic    6.28597036e+01    1.11510000e+02
127 harmonic    3.92399618e+01    1.08460000e+02
128 harmonic    4.63898184e+01    1.09560000e+02
129 harmonic    4.63898184e+01    1.09560000e+02
130 harmonic    4.63396272e+01    1.09800000e+02
131 harmonic    4.63396272e+01    1.09800000e+02
132 harmonic    6.28597036e+01    1.11510000e+02
133 harmonic    3.94000956e+01    1.07580000e+02
134 harmonic    4.63396272e+01    1.09800000e+02
135 harmonic    4.63396272e+01    1.09800000e+02
136 harmonic    4.63396272e+01    1.09800000e+02
137 harmonic    4.63396272e+01    1.09800000e+02
138 harmonic    6.28597036e+01    1.11510000e+02
139 harmonic    3.94000956e+01    1.07580000e+02
140 harmonic    4.63396272e+01    1.09800000e+02
141 harmonic    4.63396272e+01    1.09800000e+02
142 harmonic    4.63396272e+01    1.09800000e+02
143 harmonic    4.63396272e+01    1.09800000e+02
144 harmonic    6.32695985e+01    1.11040000e+02
145 harmonic    3.94000956e+01    1.07580000e+02
146 harmonic    4.63396272e+01    1.09800000e+02
147 harmonic    4.63396272e+01    1.09800000e+02
148 harmonic    6.73996176e+01    1.23200000e+02
149 harmonic    6.88898184e+01    1.10720000e+02
150 harmonic    3.94000956e+01    1.07580000e+02
151 harmonic    4.69299713e+01    1.08770000e+02
152 harmonic    4.69299713e+01    1.08770000e+02
153 harmonic    6.32803537e+01    1.15980000e+02
154 harmonic    7.53202677e+01    1.23250000e+02
155 harmonic    5.07994742e+01    1.09780000e+02
156 harmonic    5.07994742e+01    1.09780000e+02
157 harmonic    6.79995220e+01    1.07970000e+02
158 harmonic    4.63396272e+01    1.09800000e+02
159 harmonic    4.63396272e+01    1.09800000e+02
160 harmonic    6.28597036e+01    1.11510000e+02
161 harmonic    3.92399618e+01    1.08460000e+02
162 harmonic    4.63898184e+01    1.09560000e+02
163 harmonic    4.63898184e+01    1.09560000e+02
164 harmonic    4.63396272e+01    1.09800000e+02
165 harmonic    4.63396272e+01    1.09800000e+02
166 harmonic    6.28597036e+01    1.11510000e+02
167 harmonic    3.94000956e+01    1.07580000e+02
168 harmonic    4.63396272e+01    1.09800000e+02
169 harmonic    4.63396272e+01    1.09800000e+02
170 harmonic    4.63396272e+01    1.09800000e+02
171 harmonic    4.63396272e+01    1.09800000e+02
172 harmonic    6.28597036e+01    1.11510000e+02
173 harmonic    3.94000956e+01    1.07580000e+02
174 harmonic    4.63396272e+01    1.09800000e+02
175 harmonic    4.63396272e+01    1.09800000e+02