Untitled

150 atoms
149 bonds
274 angles
462 dihedrals
0 impropers

5 atom types
149 bond types
274 angle types
462 dihedral types

-57.9305108  12.0694892 xlo xhi
 -0.2838393  69.7161607 ylo yhi
 -1.7969455  68.2030545 zlo zhi
  0.0000000   0.0000000   0.0000000 xy xz yz

Masses

1  16.0000000
2  12.0100000
3  16.0000000
4   1.0080000
5   1.0080000

Bond Coeffs

1 harmonic    3.08600000e+02    1.43160000e+00
2 harmonic    3.08600000e+02    1.43160000e+00
3 harmonic    3.00900000e+02    1.53750000e+00
4 harmonic    3.30600000e+02    1.09690000e+00
5 harmonic    3.30600000e+02    1.09690000e+00
6 harmonic    3.08600000e+02    1.43160000e+00
7 harmonic    3.30600000e+02    1.09690000e+00
8 harmonic    3.30600000e+02    1.09690000e+00
9 harmonic    3.08600000e+02    1.43160000e+00
10 harmonic    3.00900000e+02    1.53750000e+00
11 harmonic    3.30600000e+02    1.09690000e+00
12 harmonic    3.30600000e+02    1.09690000e+00
13 harmonic    3.08600000e+02    1.43160000e+00
14 harmonic    3.30600000e+02    1.09690000e+00
15 harmonic    3.30600000e+02    1.09690000e+00
16 harmonic    3.08600000e+02    1.43160000e+00
17 harmonic    3.00900000e+02    1.53750000e+00
18 harmonic    3.30600000e+02    1.09690000e+00
19 harmonic    3.30600000e+02    1.09690000e+00
20 harmonic    3.08600000e+02    1.43160000e+00
21 harmonic    3.30600000e+02    1.09690000e+00
22 harmonic    3.30600000e+02    1.09690000e+00
23 harmonic    3.08600000e+02    1.43160000e+00
24 harmonic    3.00900000e+02    1.53750000e+00
25 harmonic    3.30600000e+02    1.09690000e+00
26 harmonic    3.30600000e+02    1.09690000e+00
27 harmonic    3.16700000e+02    1.42330000e+00
28 harmonic    3.30600000e+02    1.09690000e+00
29 harmonic    3.30600000e+02    1.09690000e+00
30 harmonic    3.71400000e+02    9.73000000e-01
31 harmonic    3.30600000e+02    1.09690000e+00
32 harmonic    3.30600000e+02    1.09690000e+00
33 harmonic    3.00900000e+02    1.53750000e+00
34 harmonic    3.30600000e+02    1.09690000e+00
35 harmonic    3.30600000e+02    1.09690000e+00
36 harmonic    3.08600000e+02    1.43160000e+00
37 harmonic    3.08600000e+02    1.43160000e+00
38 harmonic    3.30600000e+02    1.09690000e+00
39 harmonic    3.30600000e+02    1.09690000e+00
40 harmonic    3.00900000e+02    1.53750000e+00
41 harmonic    3.30600000e+02    1.09690000e+00
42 harmonic    3.30600000e+02    1.09690000e+00
43 harmonic    3.08600000e+02    1.43160000e+00
44 harmonic    3.08600000e+02    1.43160000e+00
45 harmonic    3.30600000e+02    1.09690000e+00
46 harmonic    3.30600000e+02    1.09690000e+00
47 harmonic    3.00900000e+02    1.53750000e+00
48 harmonic    3.30600000e+02    1.09690000e+00
49 harmonic    3.30600000e+02    1.09690000e+00
50 harmonic    3.08600000e+02    1.43160000e+00
51 harmonic    3.08600000e+02    1.43160000e+00
52 harmonic    3.30600000e+02    1.09690000e+00
53 harmonic    3.30600000e+02    1.09690000e+00
54 harmonic    3.00900000e+02    1.53750000e+00
55 harmonic    3.30600000e+02    1.09690000e+00
56 harmonic    3.30600000e+02    1.09690000e+00
57 harmonic    3.08600000e+02    1.43160000e+00
58 harmonic    3.08600000e+02    1.43160000e+00
59 harmonic    3.30600000e+02    1.09690000e+00
60 harmonic    3.30600000e+02    1.09690000e+00
61 harmonic    3.00900000e+02    1.53750000e+00
62 harmonic    3.30600000e+02    1.09690000e+00
63 harmonic    3.30600000e+02    1.09690000e+00
64 harmonic    3.08600000e+02    1.43160000e+00
65 harmonic    3.08600000e+02    1.43160000e+00
66 harmonic    3.30600000e+02    1.09690000e+00
67 harmonic    3.30600000e+02    1.09690000e+00
68 harmonic    3.00900000e+02    1.53750000e+00
69 harmonic    3.30600000e+02    1.09690000e+00
70 harmonic    3.30600000e+02    1.09690000e+00
71 harmonic    3.08600000e+02    1.43160000e+00
72 harmonic    3.08600000e+02    1.43160000e+00
73 harmonic    3.30600000e+02    1.09690000e+00
74 harmonic    3.30600000e+02    1.09690000e+00
75 harmonic    3.00900000e+02    1.53750000e+00
76 harmonic    3.30600000e+02    1.09690000e+00
77 harmonic    3.30600000e+02    1.09690000e+00
78 harmonic    3.08600000e+02    1.43160000e+00
79 harmonic    3.08600000e+02    1.43160000e+00
80 harmonic    3.30600000e+02    1.09690000e+00
81 harmonic    3.30600000e+02    1.09690000e+00
82 harmonic    3.00900000e+02    1.53750000e+00
83 harmonic    3.30600000e+02    1.09690000e+00
84 harmonic    3.30600000e+02    1.09690000e+00
85 harmonic    3.08600000e+02    1.43160000e+00
86 harmonic    3.08600000e+02    1.43160000e+00
87 harmonic    3.30600000e+02    1.09690000e+00
88 harmonic    3.30600000e+02    1.09690000e+00
89 harmonic    3.00900000e+02    1.53750000e+00
90 harmonic    3.30600000e+02    1.09690000e+00
91 harmonic    3.30600000e+02    1.09690000e+00
92 harmonic    3.08600000e+02    1.43160000e+00
93 harmonic    3.08600000e+02    1.43160000e+00
94 harmonic    3.30600000e+02    1.09690000e+00
95 harmonic    3.30600000e+02    1.09690000e+00
96 harmonic    3.00900000e+02    1.53750000e+00
97 harmonic    3.30600000e+02    1.09690000e+00
98 harmonic    3.30600000e+02    1.09690000e+00
99 harmonic    3.08600000e+02    1.43160000e+00
100 harmonic    3.08600000e+02    1.43160000e+00
101 harmonic    3.30600000e+02    1.09690000e+00
102 harmonic    3.30600000e+02    1.09690000e+00
103 harmonic    3.00900000e+02    1.53750000e+00
104 harmonic    3.30600000e+02    1.09690000e+00
105 harmonic    3.30600000e+02    1.09690000e+00
106 harmonic    3.08600000e+02    1.43160000e+00
107 harmonic    3.08600000e+02    1.43160000e+00
108 harmonic    3.30600000e+02    1.09690000e+00
109 harmonic    3.30600000e+02    1.09690000e+00
110 harmonic    3.00900000e+02    1.53750000e+00
111 harmonic    3.30600000e+02    1.09690000e+00
112 harmonic    3.30600000e+02    1.09690000e+00
113 harmonic    3.08600000e+02    1.43160000e+00
114 harmonic    3.08600000e+02    1.43160000e+00
115 harmonic    3.30600000e+02    1.09690000e+00
116 harmonic    3.30600000e+02    1.09690000e+00
117 harmonic    3.00900000e+02    1.53750000e+00
118 harmonic    3.30600000e+02    1.09690000e+00
119 harmonic    3.30600000e+02    1.09690000e+00
120 harmonic    3.08600000e+02    1.43160000e+00
121 harmonic    3.08600000e+02    1.43160000e+00
122 harmonic    3.30600000e+02    1.09690000e+00
123 harmonic    3.30600000e+02    1.09690000e+00
124 harmonic    3.00900000e+02    1.53750000e+00
125 harmonic    3.30600000e+02    1.09690000e+00
126 harmonic    3.30600000e+02    1.09690000e+00
127 harmonic    3.08600000e+02    1.43160000e+00
128 harmonic    3.08600000e+02    1.43160000e+00
129 harmonic    3.30600000e+02    1.09690000e+00
130 harmonic    3.30600000e+02    1.09690000e+00
131 harmonic    3.00900000e+02    1.53750000e+00
132 harmonic    3.30600000e+02    1.09690000e+00
133 harmonic    3.30600000e+02    1.09690000e+00
134 harmonic    3.08600000e+02    1.43160000e+00
135 harmonic    3.08600000e+02    1.43160000e+00
136 harmonic    3.30600000e+02    1.09690000e+00
137 harmonic    3.30600000e+02    1.09690000e+00
138 harmonic    3.00900000e+02    1.53750000e+00
139 harmonic    3.30600000e+02    1.09690000e+00
140 harmonic    3.30600000e+02    1.09690000e+00
141 harmonic    3.08600000e+02    1.43160000e+00
142 harmonic    3.08600000e+02    1.43160000e+00
143 harmonic    3.00900000e+02    1.53750000e+00
144 harmonic    3.30600000e+02    1.09690000e+00
145 harmonic    3.30600000e+02    1.09690000e+00
146 harmonic    3.16700000e+02    1.42330000e+00
147 harmonic    3.30600000e+02    1.09690000e+00
148 harmonic    3.30600000e+02    1.09690000e+00
149 harmonic    3.71400000e+02    9.73000000e-01

Angle Coeffs

1 harmonic    6.80000000e+01    1.07970046e+02
2 harmonic    5.08000000e+01    1.09780047e+02
3 harmonic    5.08000000e+01    1.09780047e+02
4 harmonic    5.08000000e+01    1.09780047e+02
5 harmonic    5.08000000e+01    1.09780047e+02
6 harmonic    6.80000000e+01    1.07970046e+02
7 harmonic    6.27000000e+01    1.12480048e+02
8 harmonic    6.80000000e+01    1.07970046e+02
9 harmonic    4.63900000e+01    1.09560047e+02
10 harmonic    4.63900000e+01    1.09560047e+02
11 harmonic    4.63900000e+01    1.09560047e+02
12 harmonic    4.63900000e+01    1.09560047e+02
13 harmonic    6.27000000e+01    1.12480048e+02
14 harmonic    5.08000000e+01    1.09780047e+02
15 harmonic    5.08000000e+01    1.09780047e+02
16 harmonic    6.80000000e+01    1.07970046e+02
17 harmonic    5.08000000e+01    1.09780047e+02
18 harmonic    5.08000000e+01    1.09780047e+02
19 harmonic    6.80000000e+01    1.07970046e+02
20 harmonic    4.63900000e+01    1.09560047e+02
21 harmonic    4.63900000e+01    1.09560047e+02
22 harmonic    4.63900000e+01    1.09560047e+02
23 harmonic    4.63900000e+01    1.09560047e+02
24 harmonic    6.27000000e+01    1.12480048e+02
25 harmonic    5.08000000e+01    1.09780047e+02
26 harmonic    5.08000000e+01    1.09780047e+02
27 harmonic    6.80000000e+01    1.07970046e+02
28 harmonic    5.08000000e+01    1.09780047e+02
29 harmonic    5.08000000e+01    1.09780047e+02
30 harmonic    6.80000000e+01    1.07970046e+02
31 harmonic    4.63900000e+01    1.09560047e+02
32 harmonic    4.63900000e+01    1.09560047e+02
33 harmonic    4.63900000e+01    1.09560047e+02
34 harmonic    4.63900000e+01    1.09560047e+02
35 harmonic    6.27000000e+01    1.12480048e+02
36 harmonic    5.08000000e+01    1.09780047e+02
37 harmonic    5.08000000e+01    1.09780047e+02
38 harmonic    6.80000000e+01    1.07970046e+02
39 harmonic    5.08000000e+01    1.09780047e+02
40 harmonic    5.08000000e+01    1.09780047e+02
41 harmonic    6.74700000e+01    1.10190047e+02
42 harmonic    4.63900000e+01    1.09560047e+02
43 harmonic    4.63900000e+01    1.09560047e+02
44 harmonic    4.63900000e+01    1.09560047e+02
45 harmonic    4.63900000e+01    1.09560047e+02
46 harmonic    4.73800000e+01    1.07260046e+02
47 harmonic    5.09300000e+01    1.10260047e+02
48 harmonic    5.09300000e+01    1.10260047e+02
49 harmonic    3.92400000e+01    1.08460047e+02
50 harmonic    3.92400000e+01    1.08460047e+02
51 harmonic    3.92400000e+01    1.08460047e+02
52 harmonic    3.92400000e+01    1.08460047e+02
53 harmonic    3.92400000e+01    1.08460047e+02
54 harmonic    3.92400000e+01    1.08460047e+02
55 harmonic    3.92400000e+01    1.08460047e+02
56 harmonic    3.92400000e+01    1.08460047e+02
57 harmonic    4.63900000e+01    1.09560047e+02
58 harmonic    4.63900000e+01    1.09560047e+02
59 harmonic    6.80000000e+01    1.07970046e+02
60 harmonic    3.92400000e+01    1.08460047e+02
61 harmonic    4.63900000e+01    1.09560047e+02
62 harmonic    4.63900000e+01    1.09560047e+02
63 harmonic    6.27000000e+01    1.12480048e+02
64 harmonic    3.92400000e+01    1.08460047e+02
65 harmonic    5.08000000e+01    1.09780047e+02
66 harmonic    5.08000000e+01    1.09780047e+02
67 harmonic    5.08000000e+01    1.09780047e+02
68 harmonic    5.08000000e+01    1.09780047e+02
69 harmonic    6.80000000e+01    1.07970046e+02
70 harmonic    4.63900000e+01    1.09560047e+02
71 harmonic    4.63900000e+01    1.09560047e+02
72 harmonic    6.80000000e+01    1.07970046e+02
73 harmonic    3.92400000e+01    1.08460047e+02
74 harmonic    4.63900000e+01    1.09560047e+02
75 harmonic    4.63900000e+01    1.09560047e+02
76 harmonic    6.27000000e+01    1.12480048e+02
77 harmonic    3.92400000e+01    1.08460047e+02
78 harmonic    5.08000000e+01    1.09780047e+02
79 harmonic    5.08000000e+01    1.09780047e+02
80 harmonic    5.08000000e+01    1.09780047e+02
81 harmonic    5.08000000e+01    1.09780047e+02
82 harmonic    6.80000000e+01    1.07970046e+02
83 harmonic    4.63900000e+01    1.09560047e+02
84 harmonic    4.63900000e+01    1.09560047e+02
85 harmonic    6.80000000e+01    1.07970046e+02
86 harmonic    3.92400000e+01    1.08460047e+02
87 harmonic    4.63900000e+01    1.09560047e+02
88 harmonic    4.63900000e+01    1.09560047e+02
89 harmonic    6.27000000e+01    1.12480048e+02
90 harmonic    3.92400000e+01    1.08460047e+02
91 harmonic    5.08000000e+01    1.09780047e+02
92 harmonic    5.08000000e+01    1.09780047e+02
93 harmonic    5.08000000e+01    1.09780047e+02
94 harmonic    5.08000000e+01    1.09780047e+02
95 harmonic    6.80000000e+01    1.07970046e+02
96 harmonic    4.63900000e+01    1.09560047e+02
97 harmonic    4.63900000e+01    1.09560047e+02
98 harmonic    6.80000000e+01    1.07970046e+02
99 harmonic    3.92400000e+01    1.08460047e+02
100 harmonic    4.63900000e+01    1.09560047e+02
101 harmonic    4.63900000e+01    1.09560047e+02
102 harmonic    6.27000000e+01    1.12480048e+02
103 harmonic    3.92400000e+01    1.08460047e+02
104 harmonic    5.08000000e+01    1.09780047e+02
105 harmonic    5.08000000e+01    1.09780047e+02
106 harmonic    5.08000000e+01    1.09780047e+02
107 harmonic    5.08000000e+01    1.09780047e+02
108 harmonic    6.80000000e+01    1.07970046e+02
109 harmonic    4.63900000e+01    1.09560047e+02
110 harmonic    4.63900000e+01    1.09560047e+02
111 harmonic    6.80000000e+01    1.07970046e+02
112 harmonic    3.92400000e+01    1.08460047e+02
113 harmonic    4.63900000e+01    1.09560047e+02
114 harmonic    4.63900000e+01    1.09560047e+02
115 harmonic    6.27000000e+01    1.12480048e+02
116 harmonic    3.92400000e+01    1.08460047e+02
117 harmonic    5.08000000e+01    1.09780047e+02
118 harmonic    5.08000000e+01    1.09780047e+02
119 harmonic    5.08000000e+01    1.09780047e+02
120 harmonic    5.08000000e+01    1.09780047e+02
121 harmonic    6.80000000e+01    1.07970046e+02
122 harmonic    4.63900000e+01    1.09560047e+02
123 harmonic    4.63900000e+01    1.09560047e+02
124 harmonic    6.80000000e+01    1.07970046e+02
125 harmonic    3.92400000e+01    1.08460047e+02
126 harmonic    4.63900000e+01    1.09560047e+02
127 harmonic    4.63900000e+01    1.09560047e+02
128 harmonic    6.27000000e+01    1.12480048e+02
129 harmonic    3.92400000e+01    1.08460047e+02
130 harmonic    5.08000000e+01    1.09780047e+02
131 harmonic    5.08000000e+01    1.09780047e+02
132 harmonic    5.08000000e+01    1.09780047e+02
133 harmonic    5.08000000e+01    1.09780047e+02
134 harmonic    6.80000000e+01    1.07970046e+02
135 harmonic    4.63900000e+01    1.09560047e+02
136 harmonic    4.63900000e+01    1.09560047e+02
137 harmonic    6.80000000e+01    1.07970046e+02
138 harmonic    3.92400000e+01    1.08460047e+02
139 harmonic    4.63900000e+01    1.09560047e+02
140 harmonic    4.63900000e+01    1.09560047e+02
141 harmonic    6.27000000e+01    1.12480048e+02
142 harmonic    3.92400000e+01    1.08460047e+02
143 harmonic    5.08000000e+01    1.09780047e+02
144 harmonic    5.08000000e+01    1.09780047e+02
145 harmonic    5.08000000e+01    1.09780047e+02
146 harmonic    5.08000000e+01    1.09780047e+02
147 harmonic    6.80000000e+01    1.07970046e+02
148 harmonic    4.63900000e+01    1.09560047e+02
149 harmonic    4.63900000e+01    1.09560047e+02
150 harmonic    6.80000000e+01    1.07970046e+02
151 harmonic    3.92400000e+01    1.08460047e+02
152 harmonic    4.63900000e+01    1.09560047e+02
153 harmonic    4.63900000e+01    1.09560047e+02
154 harmonic    6.27000000e+01    1.12480048e+02
155 harmonic    3.92400000e+01    1.08460047e+02
156 harmonic    5.08000000e+01    1.09780047e+02
157 harmonic    5.08000000e+01    1.09780047e+02
158 harmonic    5.08000000e+01    1.09780047e+02
159 harmonic    5.08000000e+01    1.09780047e+02
160 harmonic    6.80000000e+01    1.07970046e+02
161 harmonic    4.63900000e+01    1.09560047e+02
162 harmonic    4.63900000e+01    1.09560047e+02
163 harmonic    6.80000000e+01    1.07970046e+02
164 harmonic    3.92400000e+01    1.08460047e+02
165 harmonic    4.63900000e+01    1.09560047e+02
166 harmonic    4.63900000e+01    1.09560047e+02
167 harmonic    6.27000000e+01    1.12480048e+02
168 harmonic    3.92400000e+01    1.08460047e+02
169 harmonic    5.08000000e+01    1.09780047e+02
170 harmonic    5.08000000e+01    1.09780047e+02
171 harmonic    5.08000000e+01    1.09780047e+02
172 harmonic    5.08000000e+01    1.09780047e+02
173 harmonic    6.80000000e+01    1.07970046e+02
174 harmonic    4.63900000e+01    1.09560047e+02
175 harmonic    4.63900000e+01    1.09560047e+02
176 harmonic    6.80000000e+01    1.07970046e+02
177 harmonic    3.92400000e+01    1.08460047e+02
178 harmonic    4.63900000e+01    1.09560047e+02
179 harmonic    4.63900000e+01    1.09560047e+02
180 harmonic    6.27000000e+01    1.12480048e+02
181 harmonic    3.92400000e+01    1.08460047e+02
182 harmonic    5.08000000e+01    1.09780047e+02
183 harmonic    5.08000000e+01    1.09780047e+02
184 harmonic    5.08000000e+01    1.09780047e+02
185 harmonic    5.08000000e+01    1.09780047e+02
186 harmonic    6.80000000e+01    1.07970046e+02
187 harmonic    4.63900000e+01    1.09560047e+02
188 harmonic    4.63900000e+01    1.09560047e+02
189 harmonic    6.80000000e+01    1.07970046e+02
190 harmonic    3.92400000e+01    1.08460047e+02
191 harmonic    4.63900000e+01    1.09560047e+02
192 harmonic    4.63900000e+01    1.09560047e+02
193 harmonic    6.27000000e+01    1.12480048e+02
194 harmonic    3.92400000e+01    1.08460047e+02
195 harmonic    5.08000000e+01    1.09780047e+02
196 harmonic    5.08000000e+01    1.09780047e+02
197 harmonic    5.08000000e+01    1.09780047e+02
198 harmonic    5.08000000e+01    1.09780047e+02
199 harmonic    6.80000000e+01    1.07970046e+02
200 harmonic    4.63900000e+01    1.09560047e+02
201 harmonic    4.63900000e+01    1.09560047e+02
202 harmonic    6.80000000e+01    1.07970046e+02
203 harmonic    3.92400000e+01    1.08460047e+02
204 harmonic    4.63900000e+01    1.09560047e+02
205 harmonic    4.63900000e+01    1.09560047e+02
206 harmonic    6.27000000e+01    1.12480048e+02
207 harmonic    3.92400000e+01    1.08460047e+02
208 harmonic    5.08000000e+01    1.09780047e+02
209 harmonic    5.08000000e+01    1.09780047e+02
210 harmonic    5.08000000e+01    1.09780047e+02
211 harmonic    5.08000000e+01    1.09780047e+02
212 harmonic    6.80000000e+01    1.07970046e+02
213 harmonic    4.63900000e+01    1.09560047e+02
214 harmonic    4.63900000e+01    1.09560047e+02
215 harmonic    6.80000000e+01    1.07970046e+02
216 harmonic    3.92400000e+01    1.08460047e+02
217 harmonic    4.63900000e+01    1.09560047e+02
218 harmonic    4.63900000e+01    1.09560047e+02
219 harmonic    6.27000000e+01    1.12480048e+02
220 harmonic    3.92400000e+01    1.08460047e+02
221 harmonic    5.08000000e+01    1.09780047e+02
222 harmonic    5.08000000e+01    1.09780047e+02
223 harmonic    5.08000000e+01    1.09780047e+02
224 harmonic    5.08000000e+01    1.09780047e+02
225 harmonic    6.80000000e+01    1.07970046e+02
226 harmonic    4.63900000e+01    1.09560047e+02
227 harmonic    4.63900000e+01    1.09560047e+02
228 harmonic    6.80000000e+01    1.07970046e+02
229 harmonic    3.92400000e+01    1.08460047e+02
230 harmonic    4.63900000e+01    1.09560047e+02
231 harmonic    4.63900000e+01    1.09560047e+02
232 harmonic    6.27000000e+01    1.12480048e+02
233 harmonic    3.92400000e+01    1.08460047e+02
234 harmonic    5.08000000e+01    1.09780047e+02
235 harmonic    5.08000000e+01    1.09780047e+02
236 harmonic    5.08000000e+01    1.09780047e+02
237 harmonic    5.08000000e+01    1.09780047e+02
238 harmonic    6.80000000e+01    1.07970046e+02
239 harmonic    4.63900000e+01    1.09560047e+02
240 harmonic    4.63900000e+01    1.09560047e+02
241 harmonic    6.80000000e+01    1.07970046e+02
242 harmonic    3.92400000e+01    1.08460047e+02
243 harmonic    4.63900000e+01    1.09560047e+02
244 harmonic    4.63900000e+01    1.09560047e+02
245 harmonic    6.27000000e+01    1.12480048e+02
246 harmonic    3.92400000e+01    1.08460047e+02
247 harmonic    5.08000000e+01    1.09780047e+02
248 harmonic    5.08000000e+01    1.09780047e+02
249 harmonic    5.08000000e+01    1.09780047e+02
250 harmonic    5.08000000e+01    1.09780047e+02
251 harmonic    6.80000000e+01    1.07970046e+02
252 harmonic    4.63900000e+01    1.09560047e+02
253 harmonic    4.63900000e+01    1.09560047e+02
254 harmonic    6.80000000e+01    1.07970046e+02
255 harmonic    3.92400000e+01    1.08460047e+02
256 harmonic    4.63900000e+01    1.09560047e+02
257 harmonic    4.63900000e+01    1.09560047e+02
258 harmonic    6.27000000e+01    1.12480048e+02
259 harmonic    3.92400000e+01    1.08460047e+02
260 harmonic    5.08000000e+01    1.09780047e+02
261 harmonic    5.08000000e+01    1.09780047e+02
262 harmonic    6.80000000e+01    1.07970046e+02
263 harmonic    5.08000000e+01    1.09780047e+02
264 harmonic    5.08000000e+01    1.09780047e+02
265 harmonic    6.74700000e+01    1.10190047e+02
266 harmonic    4.63900000e+01    1.09560047e+02
267 harmonic    4.63900000e+01    1.09560047e+02
268 harmonic    4.63900000e+01    1.09560047e+02
269 harmonic    4.63900000e+01    1.09560047e+02
270 harmonic    4.73800000e+01    1.07260046e+02
271 harmonic    5.09300000e+01    1.10260047e+02
272 harmonic    5.09300000e+01    1.10260047e+02
273 harmonic    3.92400000e+01    1.08460047e+02
274 harmonic    3.92400000e+01    1.08460047e+02

Dihedral Coeffs

1 multi/harmonic    0.00000000e+00    0.00000000e+00    2.35000000e+00    0.00000000e+00    0.00000000e+00
2 multi/harmonic    1.44000000e-01   -4.32000000e-01    0.00000000e+00    5.76000000e-01    0.00000000e+00
3 multi/harmonic    2.50000000e-01    2.50000000e-01    0.00000000e+00    0.00000000e+00    0.00000000e+00
4 multi/harmonic    0.00000000e+00    0.00000000e+00    0.00000000e+00    0.00000000e+00    0.00000000e+00
5 multi/harmonic    0.00000000e+00    0.00000000e+00    0.00000000e+00    0.00000000e+00    0.00000000e+00
6 multi/harmonic    2.50000000e-01    2.50000000e-01    0.00000000e+00    0.00000000e+00    0.00000000e+00
7 multi/harmonic    2.50000000e-01    2.50000000e-01    0.00000000e+00    0.00000000e+00    0.00000000e+00
8 multi/harmonic    0.00000000e+00    0.00000000e+00    0.00000000e+00    0.00000000e+00    0.00000000e+00
9 multi/harmonic    2.50000000e-01    2.50000000e-01    0.00000000e+00    0.00000000e+00    0.00000000e+00
10 multi/harmonic    0.00000000e+00    0.00000000e+00    0.00000000e+00    0.00000000e+00    0.00000000e+00
11 multi/harmonic    0.00000000e+00    0.00000000e+00    2.35000000e+00    0.00000000e+00    0.00000000e+00
12 multi/harmonic    1.44000000e-01   -4.32000000e-01    0.00000000e+00    5.76000000e-01    0.00000000e+00
13 multi/harmonic    3.83333341e-01   -1.15000002e+00    0.00000000e+00    1.53333337e+00    0.00000000e+00
14 multi/harmonic    3.83333341e-01   -1.15000002e+00    0.00000000e+00    1.53333337e+00    0.00000000e+00
15 charmm    1.00000000e-01         2       180         0
16 multi/harmonic    3.83000000e-01   -1.14900000e+00    0.00000000e+00    1.53200000e+00    0.00000000e+00
17 charmm    1.00000000e-01         2       180         0
18 multi/harmonic    3.83000000e-01   -1.14900000e+00    0.00000000e+00    1.53200000e+00    0.00000000e+00
19 charmm    1.00000000e-01         2       180         0
20 multi/harmonic    3.83000000e-01   -1.14900000e+00    0.00000000e+00    1.53200000e+00    0.00000000e+00
21 multi/harmonic    3.83333341e-01   -1.15000002e+00    0.00000000e+00    1.53333337e+00    0.00000000e+00
22 multi/harmonic    3.83333341e-01   -1.15000002e+00    0.00000000e+00    1.53333337e+00    0.00000000e+00
23 multi/harmonic    2.50000000e-01    2.50000000e-01    0.00000000e+00    0.00000000e+00    0.00000000e+00
24 multi/harmonic    0.00000000e+00    0.00000000e+00    0.00000000e+00    0.00000000e+00    0.00000000e+00
25 multi/harmonic    2.50000000e-01    2.50000000e-01    0.00000000e+00    0.00000000e+00    0.00000000e+00
26 multi/harmonic    0.00000000e+00    0.00000000e+00    0.00000000e+00    0.00000000e+00    0.00000000e+00
27 multi/harmonic    0.00000000e+00    0.00000000e+00    2.35000000e+00    0.00000000e+00    0.00000000e+00
28 multi/harmonic    1.44000000e-01   -4.32000000e-01    0.00000000e+00    5.76000000e-01    0.00000000e+00
29 multi/harmonic    2.50000000e-01    2.50000000e-01    0.00000000e+00    0.00000000e+00    0.00000000e+00
30 multi/harmonic    0.00000000e+00    0.00000000e+00    0.00000000e+00    0.00000000e+00    0.00000000e+00
31 multi/harmonic    2.50000000e-01    2.50000000e-01    0.00000000e+00    0.00000000e+00    0.00000000e+00
32 multi/harmonic    0.00000000e+00    0.00000000e+00    0.00000000e+00    0.00000000e+00    0.00000000e+00
33 multi/harmonic    3.83333341e-01   -1.15000002e+00    0.00000000e+00    1.53333337e+00    0.00000000e+00
34 multi/harmonic    3.83333341e-01   -1.15000002e+00    0.00000000e+00    1.53333337e+00    0.00000000e+00
35 charmm    1.00000000e-01         2       180         0
36 multi/harmonic    3.83000000e-01   -1.14900000e+00    0.00000000e+00    1.53200000e+00    0.00000000e+00
37 charmm    1.00000000e-01         2       180         0
38 multi/harmonic    3.83000000e-01   -1.14900000e+00    0.00000000e+00    1.53200000e+00    0.00000000e+00
39 multi/harmonic    3.83333341e-01   -1.15000002e+00    0.00000000e+00    1.53333337e+00    0.00000000e+00
40 multi/harmonic    3.83333341e-01   -1.15000002e+00    0.00000000e+00    1.53333337e+00    0.00000000e+00
41 multi/harmonic    2.50000000e-01    2.50000000e-01    0.00000000e+00    0.00000000e+00    0.00000000e+00
42 multi/harmonic    0.00000000e+00    0.00000000e+00    0.00000000e+00    0.00000000e+00    0.00000000e+00
43 multi/harmonic    2.50000000e-01    2.50000000e-01    0.00000000e+00    0.00000000e+00    0.00000000e+00
44 multi/harmonic    0.00000000e+00    0.00000000e+00    0.00000000e+00    0.00000000e+00    0.00000000e+00
45 multi/harmonic    0.00000000e+00    0.00000000e+00    2.35000000e+00    0.00000000e+00    0.00000000e+00
46 multi/harmonic    1.44000000e-01   -4.32000000e-01    0.00000000e+00    5.76000000e-01    0.00000000e+00
47 multi/harmonic    2.50000000e-01    2.50000000e-01    0.00000000e+00    0.00000000e+00    0.00000000e+00
48 multi/harmonic    0.00000000e+00    0.00000000e+00    0.00000000e+00    0.00000000e+00    0.00000000e+00
49 multi/harmonic    2.50000000e-01    2.50000000e-01    0.00000000e+00    0.00000000e+00    0.00000000e+00
50 multi/harmonic    0.00000000e+00    0.00000000e+00    0.00000000e+00    0.00000000e+00    0.00000000e+00
51 multi/harmonic    3.83333341e-01   -1.15000002e+00    0.00000000e+00    1.53333337e+00    0.00000000e+00
52 multi/harmonic    3.83333341e-01   -1.15000002e+00    0.00000000e+00    1.53333337e+00    0.00000000e+00
53 charmm    1.00000000e-01         2       180         0
54 multi/harmonic    3.83000000e-01   -1.14900000e+00    0.00000000e+00    1.53200000e+00    0.00000000e+00
55 charmm    1.00000000e-01         2       180         0
56 multi/harmonic    3.83000000e-01   -1.14900000e+00    0.00000000e+00    1.53200000e+00    0.00000000e+00
57 multi/harmonic    3.83333341e-01   -1.15000002e+00    0.00000000e+00    1.53333337e+00    0.00000000e+00
58 multi/harmonic    3.83333341e-01   -1.15000002e+00    0.00000000e+00    1.53333337e+00    0.00000000e+00
59 multi/harmonic    2.50000000e-01    2.50000000e-01    0.00000000e+00    0.00000000e+00    0.00000000e+00
60 multi/harmonic    0.00000000e+00    0.00000000e+00    0.00000000e+00    0.00000000e+00    0.00000000e+00
61 multi/harmonic    2.50000000e-01    2.50000000e-01    0.00000000e+00    0.00000000e+00    0.00000000e+00
62 multi/harmonic    0.00000000e+00    0.00000000e+00    0.00000000e+00    0.00000000e+00    0.00000000e+00
63 multi/harmonic    0.00000000e+00    0.00000000e+00    2.35000000e+00    0.00000000e+00    0.00000000e+00
64 multi/harmonic    1.44000000e-01   -4.32000000e-01    0.00000000e+00    5.76000000e-01    0.00000000e+00
65 multi/harmonic    2.50000000e-01    2.50000000e-01    0.00000000e+00    0.00000000e+00    0.00000000e+00
66 multi/harmonic    0.00000000e+00    0.00000000e+00    0.00000000e+00    0.00000000e+00    0.00000000e+00
67 multi/harmonic    2.50000000e-01    2.50000000e-01    0.00000000e+00    0.00000000e+00    0.00000000e+00
68 multi/harmonic    0.00000000e+00    0.00000000e+00    0.00000000e+00    0.00000000e+00    0.00000000e+00
69 multi/harmonic    3.83333341e-01   -1.15000002e+00    0.00000000e+00    1.53333337e+00    0.00000000e+00
70 multi/harmonic    3.83333341e-01   -1.15000002e+00    0.00000000e+00    1.53333337e+00    0.00000000e+00
71 multi/harmonic    2.50000000e-01    2.50000000e-01    0.00000000e+00    0.00000000e+00    0.00000000e+00
72 multi/harmonic    1.60000000e-01   -4.80000000e-01    0.00000000e+00    6.40000000e-01    0.00000000e+00
73 multi/harmonic    2.50000000e-01    2.50000000e-01    0.00000000e+00    0.00000000e+00    0.00000000e+00
74 multi/harmonic    0.00000000e+00    0.00000000e+00    0.00000000e+00    0.00000000e+00    0.00000000e+00
75 multi/harmonic    2.50000000e-01    2.50000000e-01    0.00000000e+00    0.00000000e+00    0.00000000e+00
76 multi/harmonic    0.00000000e+00    0.00000000e+00    0.00000000e+00    0.00000000e+00    0.00000000e+00
77 multi/harmonic    1.66666659e-01   -4.99999976e-01    0.00000000e+00    6.66666635e-01    0.00000000e+00
78 multi/harmonic    1.66666659e-01   -4.99999976e-01    0.00000000e+00    6.66666635e-01    0.00000000e+00
79 multi/harmonic    1.55555545e-01   -4.66666635e-01    0.00000000e+00    6.22222180e-01    0.00000000e+00
80 multi/harmonic    1.55555545e-01   -4.66666635e-01    0.00000000e+00    6.22222180e-01    0.00000000e+00
81 multi/harmonic    1.55555545e-01   -4.66666635e-01    0.00000000e+00    6.22222180e-01    0.00000000e+00
82 multi/harmonic    1.55555545e-01   -4.66666635e-01    0.00000000e+00    6.22222180e-01    0.00000000e+00
83 multi/harmonic    1.55555545e-01   -4.66666635e-01    0.00000000e+00    6.22222180e-01    0.00000000e+00
84 multi/harmonic    1.55555545e-01   -4.66666635e-01    0.00000000e+00    6.22222180e-01    0.00000000e+00
85 multi/harmonic    1.55555545e-01   -4.66666635e-01    0.00000000e+00    6.22222180e-01    0.00000000e+00
86 multi/harmonic    1.55555545e-01   -4.66666635e-01    0.00000000e+00    6.22222180e-01    0.00000000e+00
87 multi/harmonic    1.55555545e-01   -4.66666635e-01    0.00000000e+00    6.22222180e-01    0.00000000e+00