LAMMPS data file via write_data, version 11 Aug 2017, timestep = 55098

353 atoms
8 atom types
352 bonds
352 bond types
656 angles
656 angle types
908 dihedrals
908 dihedral types

2.8313074108774381e+00 1.9014992589122571e+01 xlo xhi
-1.2034478538116430e+01 1.7816378538116414e+01 ylo yhi
-8.0778967104506649e-01 1.4446128967104502e+02 zlo zhi
0.0000000000000000e+00 0.0000000000000000e+00 0.0000000000000000e+00 xy xz yz

Masses

1 16
2 1.008
3 12.01
4 1.008
5 1.008
6 16
7 12.01
8 16

Pair Coeffs # lj/cut/coul/long

1 0.2104 3.06647
2 0 0
3 0.1094 3.39967
4 0.0157 2.47135
5 0.0157 2.64953
6 0.17 3.00001
7 0.086 3.39967
8 0.21 2.95992

Atoms # full

7 1 5 7.1371000000000004e-02 1.3074456899124385e+01 4.8527549943576833e+00 -5.1159544555155911e-01 0 0 0
27 1 8 -5.7854799999999995e-01 1.7244183037958578e+01 1.8768422301882008e+00 7.5974749145935601e+00 0 0 0
21 1 5 7.9167000000000001e-02 1.6620354173592144e+01 2.4073975655130884e+00 5.0376659023863750e+00 0 0 0
23 1 4 7.1622000000000005e-02 2.8427617603407889e+00 2.1921300656620613e+00 5.6736746309523296e+00 1 0 0
25 1 6 -3.9056900000000000e-01 1.8218114769120781e+01 3.7767055059020489e+00 6.7766401356960886e+00 0 0 0
6 1 3 -1.1173300000000000e-01 1.2569794494402739e+01 5.6009358241702660e+00 1.1188744368768810e-01 0 0 0
19 1 3 -1.2068000000000000e-01 1.7369159379415986e+01 3.0658924380955277e+00 4.5806485323513026e+00 0 0 0
8 1 5 7.1371000000000004e-02 1.1765928214760178e+01 5.0901845972908522e+00 6.5605818775873215e-01 0 0 0
9 1 3 1.4525700000000000e-01 1.3585226267692647e+01 6.1836706648171162e+00 1.1242568862410121e+00 0 0 0
10 1 4 5.8797000000000002e-02 1.3080567781213038e+01 6.8730696564338114e+00 1.8121801758836276e+00 0 0 0
11 1 4 5.8797000000000002e-02 1.4335376173794506e+01 6.7735519880709827e+00 5.8341980092611068e-01 0 0 0
12 1 6 -3.8907799999999998e-01 1.4216781947726265e+01 5.0981085726906681e+00 1.8331376663238792e+00 0 0 0
13 1 7 7.6621799999999995e-01 1.5170860091671832e+01 5.3921180072398034e+00 2.7606873101255909e+00 0 0 0
14 1 8 -5.7854799999999995e-01 1.5465352101901956e+01 6.5261031186052900e+00 3.1102244123919451e+00 0 0 0
15 1 6 -3.9056900000000000e-01 1.5754794143277167e+01 4.2657208847909889e+00 3.2609727249136542e+00 0 0 0
16 1 3 1.4173600000000000e-01 1.6738432580090979e+01 4.4321198307983440e+00 4.2945411558850930e+00 0 0 0
20 1 5 7.9167000000000001e-02 1.7685253623346934e+01 2.5935750938972202e+00 3.6424639208131424e+00 0 0 0
18 1 4 7.1622000000000005e-02 1.7519019673243765e+01 5.1296152097921546e+00 3.9668620500730247e+00 0 0 0
4 1 4 3.6665999999999997e-02 1.1483231626752707e+01 7.4594135748146488e+00 -1.8548273974050866e-01 0 0 0
24 1 4 7.1622000000000005e-02 3.1701232589508379e+00 3.8138396385940379e+00 5.0453758376059774e+00 1 0 0
22 1 3 1.4173600000000000e-01 1.8588797753493917e+01 3.1858537656136807e+00 5.5182204285500447e+00 0 0 0
26 1 7 7.6621799999999995e-01 1.7585264006362213e+01 3.0432618482147014e+00 7.7286198259092078e+00 0 0 0
17 1 4 7.1622000000000005e-02 1.6282068436474642e+01 4.8420615676757297e+00 5.2038646137067452e+00 0 0 0
3 1 3 1.3318500000000000e-01 1.1949898552054975e+01 6.6805888915307907e+00 -8.0098554535012545e-01 0 0 0
31 1 4 5.8797000000000002e-02 1.5713372489408860e+01 2.9530445402657204e+00 9.7406762952198793e+00 0 0 0
42 2 5 7.9554000000000000e-02 1.6584086183620805e+01 3.0795665538929793e+00 1.5194519415290200e+01 0 0 0
44 2 7 6.3895999999999997e-01 1.5972133521813975e+01 4.8766836282068180e+00 1.6183801984144470e+01 0 0 0
28 1 6 -3.8907799999999998e-01 1.7408560926842455e+01 3.8038343220695516e+00 8.8441170653577608e+00 0 0 0
29 1 3 1.4525700000000000e-01 1.6753520452558032e+01 3.2077025371317838e+00 9.9782286671918481e+00 0 0 0
45 2 8 -5.3710899999999995e-01 1.6249788431144697e+01 6.0619445701759052e+00 1.6153652643979292e+01 0 0 0
43 2 5 7.9554000000000000e-02 1.4919376995141624e+01 3.5500878386383938e+00 1.4892649203321110e+01 0 0 0
32 2 3 -1.1909300000000000e-01 1.6804257804366927e+01 4.2091503487076256e+00 1.1148367889517594e+01 0 0 0
33 2 5 5.0744999999999998e-02 1.6220616352915105e+01 5.0985351099923708e+00 1.0880885156349388e+01 0 0 0
34 2 5 5.0744999999999998e-02 1.7839346737096204e+01 4.5506447383867883e+00 1.1271502341099749e+01 0 0 0
35 2 3 -7.4581999999999996e-02 1.6289945006100215e+01 3.6130306845607247e+00 1.2479702940086202e+01 0 0 0
36 2 5 4.3163000000000000e-02 1.6883844751106526e+01 2.7202339797936119e+00 1.2710758662577357e+01 0 0 0
37 2 5 4.3163000000000000e-02 1.5252227050387615e+01 3.2829648870186610e+00 1.2347840800841420e+01 0 0 0
38 2 3 -7.8537999999999997e-02 1.6380792749078402e+01 4.6141683381103409e+00 1.3656011807653288e+01 0 0 0
39 2 5 5.9841999999999999e-02 1.5747666121981945e+01 5.4848611128883480e+00 1.3445692107600426e+01 0 0 0
40 2 5 5.9841999999999999e-02 1.7410805129787185e+01 4.9749496528841011e+00 1.3766016119671166e+01 0 0 0
41 2 3 -1.2601799999999999e-01 1.5940905291041281e+01 3.9408550623950518e+00 1.4976138888359346e+01 0 0 0
46 2 6 -4.3908300000000000e-01 1.5633752072123274e+01 4.1832013306410882e+00 1.7303482394703998e+01 0 0 0
30 1 4 5.8797000000000002e-02 1.7264573764040630e+01 2.2817341895410674e+00 1.0269083858183352e+01 0 0 0
63 2 8 -5.3809799999999997e-01 1.4851983821496932e+01 1.4884238858810317e+00 2.4492393506402255e+01 0 0 0
62 2 7 6.3794899999999999e-01 1.5024979540949252e+01 2.6755702575844698e+00 2.4694987400480954e+01 0 0 0
64 2 6 -4.4007200000000002e-01 1.5099328810911187e+01 3.2418852241752329e+00 2.5935475166506013e+01 0 0 0
49 2 4 5.2766000000000000e-02 1.6534449286389655e+01 5.3287221020506710e+00 1.8807305027598652e+01 0 0 0
48 2 4 5.2766000000000000e-02 1.4792444280992322e+01 5.6229551198724277e+00 1.8569138415175992e+01 0 0 0
61 2 5 7.9554000000000000e-02 1.6204454044997874e+01 4.1610561389994434e+00 2.3711079027141327e+01 0 0 0
50 2 3 -8.4473000000000006e-02 1.5242674286197500e+01 3.7615622582123880e+00 1.9633855700350445e+01 0 0 0
51 2 5 5.7820999999999997e-02 1.5977314609753476e+01 2.9534240914503105e+00 1.9531846345474456e+01 0 0 0
52 2 5 5.7820999999999997e-02 1.4259181316452571e+01 3.3290677871573564e+00 1.9412768113651534e+01 0 0 0
53 2 3 -7.7549000000000007e-02 1.5247552189205846e+01 4.2925447247122417e+00 2.1088832248372462e+01 0 0 0
54 2 5 4.4679999999999997e-02 1.4461776635538712e+01 5.0502096428866832e+00 2.1196953759182588e+01 0 0 0
60 2 5 7.9554000000000000e-02 1.4493812830033663e+01 4.5361164519548662e+00 2.3773049540014185e+01 0 0 0
56 2 3 -7.7549000000000007e-02 1.5028711403773325e+01 3.1797784294711828e+00 2.2144173116086737e+01 0 0 0
57 2 5 6.0347999999999999e-02 1.5743223105720313e+01 2.3657119541650982e+00 2.1971088132096881e+01 0 0 0
58 2 5 6.0347999999999999e-02 1.4026686895183140e+01 2.7503981911969237e+00 2.2022644908273438e+01 0 0 0
59 2 3 -1.2601799999999999e-01 1.5206360812284917e+01 3.7225854858583016e+00 2.3589658291106389e+01 0 0 0
55 2 5 4.4679999999999997e-02 1.6210167391054064e+01 4.7814939405424699e+00 2.1282456233324758e+01 0 0 0
47 2 3 1.4091300000000001e-01 1.5573639983429478e+01 4.8529672771549759e+00 1.8575588735382212e+01 0 0 0
79 3 5 7.9554000000000000e-02 1.4317451557353143e+01 2.2568742346228863e+00 3.2317382927948564e+01 0 0 0
80 3 7 6.3895999999999997e-01 1.5542383346336397e+01 3.6251992418006846e+00 3.3410559384402958e+01 0 0 0
82 3 6 -4.3908300000000000e-01 1.5091949697324965e+01 3.0766184779674930e+00 3.4572108266467964e+01 0 0 0
65 2 3 1.3990200000000000e-01 1.4983536876962356e+01 2.3854560288061073e+00 2.7088171189666308e+01 0 0 0
67 2 4 5.1756000000000003e-02 1.3973967611900331e+01 1.9594675972252791e+00 2.7138104798372623e+01 0 0 0
66 2 4 5.1756000000000003e-02 1.5712599756055834e+01 1.5683140313243982e+00 2.7025434562336912e+01 0 0 0
73 3 5 4.3163000000000000e-02 1.4081577060546492e+01 2.1441302119544776e+00 2.9741473145390525e+01 0 0 0
75 3 5 5.9841999999999999e-02 1.4816459240818311e+01 4.2785762828783493e+00 3.0841112074667326e+01 0 0 0
71 3 3 -7.4581999999999996e-02 1.5119310243346595e+01 2.4878840631517054e+00 2.9651291433514835e+01 0 0 0
72 3 5 4.3163000000000000e-02 1.5772407473641621e+01 1.6066162059474411e+00 2.9655828140448559e+01 0 0 0
77 3 3 -1.2601799999999999e-01 1.5322899184053151e+01 2.6843012082517070e+00 3.2219552144575921e+01 0 0 0
69 3 5 5.0744999999999998e-02 1.4617593820463338e+01 4.1271227631717213e+00 2.8321004298183631e+01 0 0 0
68 3 3 -1.1909300000000000e-01 1.5282583193401038e+01 3.2547877996720977e+00 2.8324237773908980e+01 0 0 0
78 3 5 7.9554000000000000e-02 1.6038809250887255e+01 1.8571439474393578e+00 3.2300008667356664e+01 0 0 0
70 3 5 5.0744999999999998e-02 1.6311082384136480e+01 3.6291429534950748e+00 2.8251868972030330e+01 0 0 0
74 3 3 -7.8537999999999997e-02 1.5466572417034708e+01 3.3951363285115139e+00 3.0849847937044473e+01 0 0 0
76 3 5 5.9841999999999999e-02 1.6495636498119058e+01 3.7629567096928564e+00 3.0755376278051237e+01 0 0 0
81 3 8 -5.3710899999999995e-01 1.6018640528655730e+01 4.7428977945539170e+00 3.3317927953764027e+01 0 0 0
103 3 4 5.1756000000000003e-02 1.1422877402686643e+01 3.6066913728604497e+00 4.4003142172361294e+01 0 0 0
94 3 5 6.0347999999999999e-02 1.2636737228107085e+01 3.0836819606338501e+00 3.8980987166949568e+01 0 0 0
86 3 3 -8.4473000000000006e-02 1.4469110079843034e+01 3.1078953683965942e+00 3.6898631405823842e+01 0 0 0
89 3 3 -7.7549000000000007e-02 1.4518426411672607e+01 3.8763982900229177e+00 3.8233553837453712e+01 0 0 0
99 3 8 -5.3809799999999997e-01 1.1816232456940615e+01 2.7343401102798861e+00 4.1540231322272916e+01 0 0 0
92 3 3 -7.7549000000000007e-02 1.3672009202382142e+01 3.1866944870918452e+00 3.9328535679947294e+01 0 0 0
101 3 3 1.3990200000000000e-01 1.2493443566052774e+01 3.3951975533478578e+00 4.4114264016722714e+01 0 0 0
93 3 5 6.0347999999999999e-02 1.4060320597448351e+01 2.1795160317416720e+00 3.9523459843819211e+01 0 0 0
98 3 7 6.3794899999999999e-01 1.2790068756710102e+01 3.4406560949511569e+00 4.1734074252217127e+01 0 0 0
90 3 5 4.4679999999999997e-02 1.4137019837136846e+01 4.8928342462147771e+00 3.8076784637813823e+01 0 0 0
95 3 3 -1.2601799999999999e-01 1.3683893126710998e+01 4.0052528912823373e+00 4.0634528029878098e+01 0 0 0
96 3 5 7.9554000000000000e-02 1.3345541313947962e+01 5.0312516283084872e+00 4.0444701128757963e+01 0 0 0
91 3 5 4.4679999999999997e-02 1.5560612740417570e+01 3.9617226606622395e+00 3.8564849804894926e+01 0 0 0
100 3 6 -4.4007200000000002e-01 1.3218467647369566e+01 3.8462949696789579e+00 4.2965885817829552e+01 0 0 0
97 3 5 7.9554000000000000e-02 1.4709640161116884e+01 4.0672659376703333e+00 4.1018177627145960e+01 0 0 0
102 3 4 5.1756000000000003e-02 1.2631051184676700e+01 2.3145587391813578e+00 4.4242613175821546e+01 0 0 0
88 3 5 5.7820999999999997e-02 1.3425727257585626e+01 2.9216587878102782e+00 3.6616040124500806e+01 0 0 0
87 3 5 5.7820999999999997e-02 1.4955807207655610e+01 2.1313705816270065e+00 3.7011391578841398e+01 0 0 0
85 3 4 5.2766000000000000e-02 1.6190127350287025e+01 4.1087898983371804e+00 3.6021271714119067e+01 0 0 0
83 3 3 1.4091300000000001e-01 1.5147822147669009e+01 3.8884069456475920e+00 3.5760080541218535e+01 0 0 0
84 3 4 5.2766000000000000e-02 1.4623078339643467e+01 4.8362244588882124e+00 3.5588396215444000e+01 0 0 0
109 4 5 4.3163000000000000e-02 1.1250890121719943e+01 3.8407908551225631e+00 4.6489849409054138e+01 0 0 0
115 4 5 7.9554000000000000e-02 1.1003741432828217e+01 4.1035260521038293e+00 4.8967471149020085e+01 0 0 0
107 4 3 -7.4581999999999996e-02 1.2334523805158319e+01 3.7303186667242993e+00 4.6619168958176516e+01 0 0 0
108 4 5 4.3163000000000000e-02 1.2529238243070251e+01 2.6697779701132500e+00 4.6820487930386669e+01 0 0 0
111 4 5 5.9841999999999999e-02 1.2536835961119557e+01 5.6353843783218966e+00 4.7631370540677516e+01 0 0 0
110 4 3 -7.8537999999999997e-02 1.2786371210674830e+01 4.5841566566636178e+00 4.7820690499006339e+01 0 0 0
113 4 3 -1.2601799999999999e-01 1.2091969335396566e+01 4.0912764072600663e+00 4.9104582739601845e+01 0 0 0
114 4 5 7.9554000000000000e-02 1.2382223451031757e+01 3.0566661437511389e+00 4.9324863834992378e+01 0 0 0
112 4 5 5.9841999999999999e-02 1.3875491291064172e+01 4.5259055306193243e+00 4.7937368975757082e+01 0 0 0
116 4 7 6.3895999999999997e-01 1.2400489256321773e+01 4.9356418505582358e+00 5.0336193986832171e+01 0 0 0
117 4 8 -5.3710899999999995e-01 1.3244790712238162e+01 5.8152356809635197e+00 5.0390442779552998e+01 0 0 0
118 4 6 -4.3908300000000000e-01 1.1579825735475355e+01 4.6016453961611372e+00 5.1365282532786168e+01 0 0 0
120 4 4 5.2766000000000000e-02 1.1471026727866322e+01 6.4148045304908745e+00 5.2389673761835141e+01 0 0 0
124 4 5 5.7820999999999997e-02 9.6351943850344313e+00 4.8778927666968652e+00 5.3137378381598545e+01 0 0 0
119 4 3 1.4091300000000001e-01 1.1675633267847912e+01 5.3534647540240261e+00 5.2576445421605442e+01 0 0 0
105 4 5 5.0744999999999998e-02 1.2916003789354194e+01 5.2292089959659140e+00 4.5181937525344765e+01 0 0 0
121 4 4 5.2766000000000000e-02 1.2681677326822202e+01 5.2656017014189107e+00 5.3004633517499641e+01 0 0 0
104 4 3 -1.1909300000000000e-01 1.3047568877487898e+01 4.1506067621617095e+00 4.5331929054514639e+01 0 0 0
106 4 5 5.0744999999999998e-02 1.4125614377122645e+01 3.9722712262792381e+00 4.5427866259847995e+01 0 0 0
122 4 3 -8.4473000000000006e-02 1.0640936064489390e+01 4.7617558051032614e+00 5.3559498613742818e+01 0 0 0
128 4 3 -7.7549000000000007e-02 9.6736639407669021e+00 4.9348061606263993e+00 5.5935320022939500e+01 0 0 0
123 4 5 5.7820999999999997e-02 1.0838462191938035e+01 3.6899457267661973e+00 5.3683580018552334e+01 0 0 0
140 5 3 -1.1909300000000000e-01 8.1374960711618058e+00 6.8981944357755172e+00 6.1511093650944723e+01 0 0 0
126 4 5 4.4679999999999997e-02 1.0572263166658525e+01 6.5472018732024591e+00 5.4795429686041352e+01 0 0 0
130 4 5 6.0347999999999999e-02 8.6629718688281727e+00 5.1278762962968667e+00 5.5555300196376919e+01 0 0 0
145 5 5 4.3163000000000000e-02 6.1152996337274939e+00 6.7837434769142053e+00 6.2257707120673871e+01 0 0 0
133 4 5 7.9554000000000000e-02 1.0825217318581883e+01 5.3565305574508404e+00 5.7748096165076305e+01 0 0 0
125 4 3 -7.7549000000000007e-02 1.0714579476781878e+01 5.4674802350029186e+00 5.4926337523747804e+01 0 0 0
142 5 5 5.0744999999999998e-02 9.1579629999101879e+00 6.8011073866765575e+00 6.1901492116941057e+01 0 0 0
132 4 5 7.9554000000000000e-02 9.8116087414733482e+00 6.7038088834267757e+00 5.7215460840723040e+01 0 0 0
136 4 6 -4.4007200000000002e-01 8.8921743057187612e+00 5.9914443899233891e+00 5.9431641723820825e+01 0 0 0
139 4 4 5.1756000000000003e-02 6.8833496454186882e+00 5.9518135953472271e+00 6.0005687764059864e+01 0 0 0
137 4 3 1.3990200000000000e-01 7.8857227628428532e+00 5.8313832349319004e+00 6.0434563354360627e+01 0 0 0
131 4 3 -1.2601799999999999e-01 9.8507155152290640e+00 5.6120650996238783e+00 5.7314232196763172e+01 0 0 0
127 4 5 4.4679999999999997e-02 1.1719617428594194e+01 5.3313851458040933e+00 5.5344149026890456e+01 0 0 0
134 4 7 6.3794899999999999e-01 8.7916690251851080e+00 5.2125949950103294e+00 5.8325739847484286e+01 0 0 0
138 4 4 5.1756000000000003e-02 7.9399560195150816e+00 4.8279023830895742e+00 6.0874193362307061e+01 0 0 0
143 5 3 -7.4581999999999996e-02 7.1335082394621576e+00 6.7434071808856491e+00 6.2663679814942228e+01 0 0 0
135 4 8 -5.3809799999999997e-01 7.9554080181870663e+00 4.3387655082237178e+00 5.8150599690139245e+01 0 0 0
129 4 5 6.0347999999999999e-02 9.7702332376089416e+00 3.8484671970973423e+00 5.6052502092567018e+01 0 0 0
146 5 3 -7.8537999999999997e-02 7.2940606127225855e+00 7.8444432079471778e+00 6.3735429424879804e+01 0 0 0
159 5 5 5.7820999999999997e-02 8.6014992362292926e+00 7.2478658044701678e+00 6.8900654312523201e+01 0 0 0
151 5 5 7.9554000000000000e-02 5.2285761974506215e+00 7.8130378002869332e+00 6.4455275442543396e+01 0 0 0
158 5 3 -8.4473000000000006e-02 7.7620965702289517e+00 7.8093275104206068e+00 6.9328852312457585e+01 0 0 0
148 5 5 5.9841999999999999e-02 8.3025078740992928e+00 7.7921715132942548e+00 6.4163788387774090e+01 0 0 0
165 5 5 6.0347999999999999e-02 9.6098797560134948e+00 6.9987852676335525e+00 7.1203488305156640e+01 0 0 0
144 5 5 4.3163000000000000e-02 7.2486247924172496e+00 5.7573413257143553e+00 6.3130168741540878e+01 0 0 0
160 5 5 5.7820999999999997e-02 6.9808351907484614e+00 7.0861502792719033e+00 6.9593115361980395e+01 0 0 0
149 5 3 -1.2601799999999999e-01 6.2422797900775784e+00 7.6620399647865671e+00 6.4846164544403621e+01 0 0 0
150 5 5 7.9554000000000000e-02 6.2655613411967375e+00 6.6398261414053170e+00 6.5243312474857078e+01 0 0 0
164 5 3 -7.7549000000000007e-02 8.7884938134828445e+00 7.5838996163654979e+00 7.1634946231841170e+01 0 0 0
174 5 4 5.1756000000000003e-02 1.1860658637220110e+01 6.5474456115351760e+00 7.5572660329910150e+01 0 0 0
170 5 7 6.3794899999999999e-01 9.8965375608666193e+00 7.3777931198757916e+00 7.3941246571337871e+01 0 0 0
171 5 8 -5.3809799999999997e-01 9.7302793024539067e+00 6.1710018682834882e+00 7.3984328372280046e+01 0 0 0
187 6 5 8.0023999999999998e-02 1.0343008859394937e+01 5.8656281358392501e+00 8.0713503313985768e+01 0 0 0
175 5 4 5.1756000000000003e-02 1.0433807732408841e+01 6.9572994847718537e+00 7.6566537666920283e+01 0 0 0
179 6 3 1.3996600000000001e-01 1.2684809144174908e+01 7.7714114132101155e+00 7.8003465864573442e+01 0 0 0
183 6 7 6.3366500000000003e-01 1.1988014171639758e+01 7.1343068808575669e+00 8.0211254090891060e+01 0 0 0
180 6 4 5.1909999999999998e-02 1.3220896327957256e+01 6.8464603380277662e+00 7.7757975233521705e+01 0 0 0
184 6 8 -5.3979900000000003e-01 1.3146448012555886e+01 7.0535876788471992e+00 8.0590106090563395e+01 0 0 0
173 5 3 1.3990200000000000e-01 1.1225883021357291e+01 7.3681619939594132e+00 7.5928573447443938e+01 0 0 0
182 6 6 -4.4508399999999998e-01 1.1631422703859014e+01 7.5077928797973481e+00 7.8948284688330347e+01 0 0 0
186 6 5 8.0023999999999998e-02 1.0011536337233579e+01 7.5949843109799833e+00 8.0873793268880959e+01 0 0 0
166 5 5 6.0347999999999999e-02 8.0085531153026785e+00 6.8627625920409212e+00 7.1908521650313119e+01 0 0 0
199 6 4 5.1909999999999998e-02 8.3366036962634666e+00 5.2120894826042399e+00 8.5452029613980955e+01 0 0 0
201 6 7 6.3366500000000003e-01 8.0452351920379197e+00 6.1514880006776043e+00 8.8014172300115703e+01 0 0 0
193 6 5 4.3878000000000000e-02 9.2784302227897033e+00 5.5691010105512770e+00 8.3110337564162620e+01 0 0 0
195 6 5 5.7933999999999999e-02 1.0786919912769488e+01 5.7173285797870594e+00 8.5154522398071407e+01 0 0 0
189 6 5 5.9943000000000003e-02 1.1739153265765651e+01 5.9131971787011235e+00 8.2787197196464504e+01 0 0 0
194 6 3 -8.5053000000000004e-02 1.0026530335614906e+01 6.4773047767699641e+00 8.4936730109457557e+01 0 0 0
188 6 3 -7.8080999999999998e-02 1.1035896778539678e+01 6.7320128969595228e+00 8.2591849448006812e+01 0 0 0
202 6 8 -5.3880300000000003e-01 6.8716418384429137e+00 6.1187905145941759e+00 8.7686853856593288e+01 0 0 0
197 6 3 1.4097100000000001e-01 8.7528103994409872e+00 6.1852948824137481e+00 8.5739836563243841e+01 0 0 0
191 6 3 -7.8080999999999998e-02 9.7451762646119402e+00 6.5136445038999664e+00 8.3415583910096473e+01 0 0 0
200 6 6 -4.4508399999999998e-01 9.0902781064707714e+00 6.1845420773815523e+00 8.7136477686311707e+01 0 0 0
203 6 3 -1.2688199999999999e-01 8.4973403451802874e+00 6.1908046967252286e+00 8.9468449235992509e+01 0 0 0
198 6 4 5.1909999999999998e-02 7.9983994375493488e+00 6.9520457273219751e+00 8.5525018378241668e+01 0 0 0
205 6 5 7.9020000000000007e-02 9.5938085511370268e+00 6.1973810769115989e+00 8.9498513077218988e+01 0 0 0
192 6 5 4.3878000000000000e-02 9.0361356810795215e+00 7.3208311558255179e+00 8.3194448725339285e+01 0 0 0
204 6 5 7.9020000000000007e-02 8.1703233547253422e+00 5.2604106386754363e+00 8.9948674594223036e+01 0 0 0
190 6 5 5.9943000000000003e-02 1.1520866697318930e+01 7.6570873619762683e+00 8.2926858436145181e+01 0 0 0
196 6 5 5.7933999999999999e-02 1.0448154936690171e+01 7.4357799309386987e+00 8.5263452751182811e+01 0 0 0
185 6 3 -1.2787799999999999e-01 1.0759213200622995e+01 6.8163695929800472e+00 8.1068544491886698e+01 0 0 0
229 7 5 4.3878000000000000e-02 7.1971242093515375e+00 4.5682921608662870e+00 9.8819272120158828e+01 0 0 0
210 6 5 3.9861000000000001e-02 8.0815921416886436e+00 6.4925029006891695e+00 9.2184480025238813e+01 0 0 0
228 7 5 4.3878000000000000e-02 5.6450275472630231e+00 5.3481100203022205e+00 9.8532961955430267e+01 0 0 0
227 7 3 -7.8080999999999998e-02 6.6367878593443441e+00 5.4979947025463698e+00 9.8976961589963949e+01 0 0 0
223 7 5 8.0023999999999998e-02 8.0915815659303441e+00 5.5304750052799445e+00 9.6546551748246600e+01 0 0 0
222 7 5 8.0023999999999998e-02 6.5358647594642951e+00 6.3151651375685933e+00 9.6280737774501958e+01 0 0 0
225 7 5 5.9943000000000003e-02 8.3443993250399604e+00 6.8325948228896447e+00 9.8720877287737650e+01 0 0 0
208 6 5 6.0947000000000001e-02 6.8295441132379686e+00 7.3993718912846038e+00 9.0191713421607801e+01 0 0 0
221 7 3 -1.2787799999999999e-01 7.5200420996788502e+00 6.4449162174207739e+00 9.6747373853566813e+01 0 0 0
224 7 3 -7.8080999999999998e-02 7.3596268860004113e+00 6.6712833433104510e+00 9.8265474762481531e+01 0 0 0
226 7 5 5.9943000000000003e-02 6.7999739291124239e+00 7.5996880286558923e+00 9.8432934961119273e+01 0 0 0
206 6 3 -7.8080999999999998e-02 7.9257126400488538e+00 7.4163092918930484e+00 9.0228007986990463e+01 0 0 0
211 6 5 3.9861000000000001e-02 9.4868802063212474e+00 7.4573437368184745e+00 9.1729659324935639e+01 0 0 0
219 7 7 6.3366500000000003e-01 8.2292672256813901e+00 7.5931953614150576e+00 9.6038584656439539e+01 0 0 0
218 7 6 -4.4508399999999998e-01 7.8229818234163240e+00 7.6541038236990193e+00 9.4738775430834821e+01 0 0 0
209 6 3 -7.8080999999999998e-02 8.3907183878436271e+00 7.4279362136033473e+00 9.1702198892419858e+01 0 0 0
238 7 8 -5.3880300000000003e-01 4.5552958175121665e+00 3.0703333343200487e+00 1.0320739598399284e+02 0 0 0
231 7 5 5.7933999999999999e-02 7.4688586912614170e+00 6.0019196189067774e+00 1.0091578579111582e+02 0 0 0
244 7 5 6.0947000000000001e-02 4.5370352843718971e+00 3.2346298569412077e+00 1.0608464244677646e+02 0 0 0
234 7 4 5.1909999999999998e-02 4.9946823207105586e+00 4.2003657878105845e+00 1.0075427123075326e+02 0 0 0
232 7 5 5.7933999999999999e-02 5.8501568129609964e+00 6.6469451864034585e+00 1.0063113295463779e+02 0 0 0
237 7 7 6.3366500000000003e-01 4.8893842377091934e+00 4.2186275813420568e+00 1.0344347264372610e+02 0 0 0
242 7 3 -7.8080999999999998e-02 3.9079794494127373e+00 4.0947912517171812e+00 1.0582464102075193e+02 0 0 0
250 8 5 5.3918000000000001e-02 1.8152515415682892e+01 3.5451045752765644e+00 1.0769084511622846e+02 -1 0 0
235 7 4 5.1909999999999998e-02 6.6203786656994712e+00 3.7620155668082873e+00 1.0134160302469236e+02 0 0 0
240 7 5 7.9020000000000007e-02 5.5697242694683862e+00 5.3192063891541448e+00 1.0513252678786652e+02 0 0 0
246 7 5 3.9861000000000001e-02 4.4992669327288137e+00 5.3105065761818668e+00 1.0752035580916059e+02 0 0 0
245 7 3 -7.8080999999999998e-02 3.5748161467579140e+00 4.8916134691336115e+00 1.0710429220913726e+02 0 0 0
239 7 3 -1.2688199999999999e-01 4.6109286289265654e+00 4.9504723754915911e+00 1.0474790261178100e+02 0 0 0
243 7 5 6.0947000000000001e-02 2.9848390607352844e+00 3.6754846272952424e+00 1.0540609187480906e+02 0 0 0
233 7 3 1.4097100000000001e-01 5.8869402966893913e+00 4.5745885754011670e+00 1.0127101354527339e+02 0 0 0
236 7 6 -4.4508399999999998e-01 5.5443260671374928e+00 5.0500173711342580e+00 1.0258510216609497e+02 0 0 0
241 7 5 7.9020000000000007e-02 4.0039651400073755e+00 5.8292738088546923e+00 1.0449791666452346e+02 0 0 0
247 7 5 3.9861000000000001e-02 2.9202145765036547e+00 5.7334615700240139e+00 1.0684743004904770e+02 0 0 0
230 7 3 -8.5053000000000004e-02 6.4854516176518979e+00 5.7635821676097425e+00 1.0049235291935055e+02 0 0 0
248 8 3 -8.6049000000000000e-02 2.8732538874708622e+00 3.9767280014928001e+00 1.0813683692019295e+02 0 0 0
270 8 4 5.1909999999999998e-02 9.4863627157860986e+00 5.4493436782492690e+00 1.1451663229048475e+02 0 0 0
269 8 3 1.4097100000000001e-01 8.7169998489177036e+00 5.7287465109479339e+00 1.1524684078556385e+02 0 0 0
257 8 3 -1.2787799999999999e-01 5.0049121049887813e+00 6.2291579371913475e+00 1.1172154453680834e+02 0 0 0
271 8 4 5.1909999999999998e-02 8.7274548595462544e+00 6.8169168967317884e+00 1.1538455612364541e+02 0 0 0
258 8 5 8.0023999999999998e-02 5.7121407086981266e+00 6.0733315721266141e+00 1.1089769051087434e+02 0 0 0
260 8 3 -7.8080999999999998e-02 5.5019434298678220e+00 5.5062995177815193e+00 1.1299344650293943e+02 0 0 0
261 8 5 5.9943000000000003e-02 4.7609593628216409e+00 5.6353066135439089e+00 1.1379187583093218e+02 0 0 0
262 8 5 5.9943000000000003e-02 5.5476225646370230e+00 4.4274983001352712e+00 1.1280033783006155e+02 0 0 0
263 8 3 -7.8080999999999998e-02 6.8894667128840474e+00 6.0006126110054741e+00 1.1347237626728753e+02 0 0 0
264 8 5 4.3878000000000000e-02 7.6357807442021368e+00 5.8439962546336890e+00 1.1268391175088814e+02 0 0 0
265 8 5 4.3878000000000000e-02 6.8506905115935410e+00 7.0772526449490147e+00 1.1367860976015787e+02 0 0 0
266 8 3 -8.5053000000000004e-02 7.3410390192477610e+00 5.2603811895031232e+00 1.1474422840985063e+02 0 0 0
267 8 5 5.7933999999999999e-02 6.6025507474913443e+00 5.4097170157005383e+00 1.1554142568374074e+02 0 0 0
268 8 5 5.7933999999999999e-02 7.3796532662868799e+00 4.1809125053642386e+00 1.1455332029085827e+02 0 0 0
253 8 4 5.1909999999999998e-02 1.8161266842133003e+01 4.0040297294096288e+00 1.1010381459493576e+02 -1 0 0
254 8 6 -4.4508399999999998e-01 3.6779316984431127e+00 5.2051794679360111e+00 1.1003780435979532e+02 0 0 0
255 8 7 6.3366500000000003e-01 3.6287244956138993e+00 5.7216067730934395e+00 1.1129625888407070e+02 0 0 0
259 8 5 8.0023999999999998e-02 4.9135265794758043e+00 7.3101697809980148e+00 1.1188356826734015e+02 0 0 0
251 8 3 1.3996600000000001e-01 1.8661974677433403e+01 4.7081951835409672e+00 1.0942806886841173e+02 -1 0 0
256 8 8 -5.3979900000000003e-01 1.8824867937725344e+01 5.7549357683746099e+00 1.1200916089682184e+02 -1 0 0
252 8 4 5.1909999999999998e-02 1.7969743630429196e+01 5.5311970756789481e+00 1.0921202796227597e+02 -1 0 0
272 8 6 -4.4508399999999998e-01 8.9435695202576841e+00 5.0790052163249921e+00 1.1650509721476384e+02 0 0 0
249 8 5 5.3918000000000001e-02 3.5240003146953445e+00 3.1302139570924066e+00 1.0838809907434040e+02 0 0 0
274 8 8 -5.3880300000000003e-01 1.1055805192018434e+01 5.9259335043409411e+00 1.1661622512203324e+02 0 0 0
273 8 7 6.3366500000000003e-01 1.0152011458520345e+01 5.2696375208723207e+00 1.1710010282870113e+02 0 0 0
282 8 5 3.9861000000000001e-02 1.0887394594786628e+01 4.5112990451546029e+00 1.2115531615951276e+02 0 0 0
275 8 3 -1.2688199999999999e-01 1.0221133545187870e+01 4.5473447054917440e+00 1.1843855606725272e+02 0 0 0
288 9 4 5.1909999999999998e-02 1.2551459020608737e+01 2.2318557883577821e+00 1.2248403294921530e+02 0 0 0
277 8 5 7.9020000000000007e-02 9.9749526250697542e+00 3.4922486632712015e+00 1.1826721749527754e+02 0 0 0
295 9 5 8.0023999999999998e-02 1.0013472152538839e+01 4.3807368906051547e+00 1.2512124952425430e+02 0 0 0
290 9 6 -4.4508399999999998e-01 1.2104382294942710e+01 4.0312500067892909e+00 1.2343259266738814e+02 0 0 0
294 9 5 8.0023999999999998e-02 1.1318161850198766e+01 5.5668496671067746e+00 1.2525823476922231e+02 0 0 0
278 8 3 -7.8080999999999998e-02 1.1602714073613120e+01 4.6573120854893180e+00 1.1912016116621359e+02 0 0 0
293 9 3 -1.2787799999999999e-01 1.1032806745295135e+01 4.5347467901637781e+00 1.2549598616356353e+02 0 0 0
283 8 5 3.9861000000000001e-02 1.1223918767997626e+01 2.9549499064611915e+00 1.2040846657011593e+02 0 0 0
285 9 5 5.3918000000000001e-02 1.3388644408890320e+01 4.9437721819384297e+00 1.2127956344499717e+02 0 0 0
276 8 5 7.9020000000000007e-02 9.4350393367021113e+00 4.9559224037292697e+00 1.1908532478161636e+02 0 0 0
281 8 3 -7.8080999999999998e-02 1.1596019854196397e+01 3.9821456179659886e+00 1.2050644290359460e+02 0 0 0
287 9 3 1.3996600000000001e-01 1.2940299136150767e+01 3.2543858594093678e+00 1.2256419047172653e+02 0 0 0
279 8 5 6.0947000000000001e-02 1.2356480670336120e+01 4.1935815475298188e+00 1.1847210290036479e+02 0 0 0
289 9 4 5.1909999999999998e-02 1.3957022896128990e+01 3.1931936743937257e+00 1.2297127513422190e+02 0 0 0
286 9 5 5.3918000000000001e-02 1.3676413590436097e+01 3.3682472339952962e+00 1.2054467847657628e+02 0 0 0
284 9 3 -8.6049000000000000e-02 1.2979464337056744e+01 3.9311709341458680e+00 1.2117758309500076e+02 0 0 0
280 8 5 6.0947000000000001e-02 1.1873788710421215e+01 5.7149692182190694e+00 1.1922537305230962e+02 0 0 0
291 9 7 6.3366500000000003e-01 1.1960643133334777e+01 3.6010868065806516e+00 1.2471557534009413e+02 0 0 0
292 9 8 -5.3979900000000003e-01 1.2515309656141971e+01 2.6111355296439509e+00 1.2517068884010527e+02 0 0 0
297 9 5 5.9943000000000003e-02 1.0663499897274907e+01 3.3154152876054592e+00 1.2724240276198381e+02 0 0 0
312 9 5 7.9020000000000007e-02 9.2481640405279926e+00 5.5400466805682793e+00 1.3417974448983418e+02 0 0 0
301 9 5 4.3878000000000000e-02 9.3126967902104347e+00 5.4118826560380189e+00 1.2755373809666003e+02 0 0 0
310 9 8 -5.3880300000000003e-01 8.6101212953969135e+00 7.6206212460884029e+00 1.3221017899073249e+02 0 0 0
308 9 6 -4.4508399999999998e-01 1.0076414565955734e+01 5.9974955792875004e+00 1.3153864459757520e+02 0 0 0
309 9 7 6.3366500000000003e-01 9.4442589209185055e+00 6.7678188069686751e+00 1.3246674104053054e+02 0 0 0
299 9 3 -7.8080999999999998e-02 1.0373863421063062e+01 5.3905503886740593e+00 1.2783061338623619e+02 0 0 0
313 9 5 7.9020000000000007e-02 1.0910077581307176e+01 5.9870532603332567e+00 1.3380603695488003e+02 0 0 0
306 9 4 5.1909999999999998e-02 1.0161971985916743e+01 7.2306207000105953e+00 1.2986609190654525e+02 0 0 0
300 9 5 4.3878000000000000e-02 1.0775015980902891e+01 6.3775470348672147e+00 1.2756964623471305e+02 0 0 0
296 9 3 -7.8080999999999998e-02 1.1096976958026012e+01 4.2984155610019368e+00 1.2702104849746748e+02 0 0 0