LAMMPS data file via write_data, version 11 Aug 2017, timestep = 98

353 atoms
8 atom types
352 bonds
352 bond types
656 angles
656 angle types
908 dihedrals
908 dihedral types

2.8313074108774381e+00 1.9014992589122571e+01 xlo xhi
-1.2034478538116430e+01 1.7816378538116414e+01 ylo yhi
-8.0778967104506649e-01 1.4446128967104502e+02 zlo zhi
0.0000000000000000e+00 0.0000000000000000e+00 0.0000000000000000e+00 xy xz yz

Masses

1 16
2 1.008
3 12.01
4 1.008
5 1.008
6 16
7 12.01
8 16

Pair Coeffs # lj/cut/coul/long

1 0.2104 3.06647
2 0 0
3 0.1094 3.39967
4 0.0157 2.47135
5 0.0157 2.64953
6 0.17 3.00001
7 0.086 3.39967
8 0.21 2.95992

Atoms # full

320 10 3 -1.1220800000000000e-01 9.1383562215786842e+00 -2.4131519130491554e+00 1.3197400335273394e+02 0 0 0
321 10 5 7.1070999999999995e-02 9.6257421081411625e+00 -3.2241491292645534e+00 1.3141666696722135e+02 0 0 0
322 10 5 7.1070999999999995e-02 8.0814421434219472e+00 -2.3830946225941165e+00 1.3169663454934289e+02 0 0 0
323 10 3 1.4464600000000000e-01 9.2446305164674882e+00 -2.7260460251497420e+00 1.3348380450720276e+02 0 0 0
324 10 6 -3.9073300000000000e-01 8.6837011785388931e+00 -4.0315062843354514e+00 1.3372994909473988e+02 0 0 0
325 10 7 7.6299899999999998e-01 8.7191038334915181e+00 -4.5306292942871922e+00 1.3499324311726977e+02 0 0 0
326 10 6 -3.9223000000000002e-01 8.2416088145962227e+00 -5.8043698688906780e+00 1.3500898349734720e+02 0 0 0
347 10 5 7.8834000000000001e-02 8.2937728343197286e+00 -8.3357673843138027e+00 1.3496575938238712e+02 0 0 0
353 10 4 5.8549999999999998e-02 1.0298654211828637e+01 -2.7218197559064894e+00 1.3379306086095468e+02 0 0 0
327 10 3 1.4113999999999999e-01 8.3434313705958516e+00 -6.5769834509078979e+00 1.3622562874039247e+02 0 0 0
328 10 3 -1.2119300000000000e-01 7.8932148710666752e+00 -8.0260977422751143e+00 1.3593934802680877e+02 0 0 0
329 10 3 1.4113999999999999e-01 8.4020076725209663e+00 -9.0174308142687103e+00 1.3701243555010643e+02 0 0 0
330 10 6 -3.9223000000000002e-01 7.6946008814785749e+00 -8.8427312568763092e+00 1.3825928985074887e+02 0 0 0
331 10 7 7.6299899999999998e-01 6.6330598147439748e+00 -9.6362298683208198e+00 1.3855648153075808e+02 0 0 0
332 10 6 -3.9073300000000000e-01 6.2635676117686883e+00 -9.4587751644703282e+00 1.3985223086049521e+02 0 0 0
333 10 3 1.4464600000000000e-01 5.3326836803883824e+00 -1.0397234223628457e+01 1.4044404749990508e+02 0 0 0
334 10 3 -1.1220800000000000e-01 5.0672865858244451e+00 -1.0003203256333986e+01 1.4191200796678365e+02 0 0 0
335 10 3 1.3262599999999999e-01 4.2150313946396905e+00 -1.1069896363267134e+01 1.4263833292207678e+02 0 0 0
336 10 1 -5.9328800000000004e-01 3.9940208724083317e+00 -1.0681725221967049e+01 1.4399580241824424e+02 0 0 0
337 10 2 4.0218399999999999e-01 3.4840857399451153e+00 -1.1381578896474174e+01 1.4445562999579869e+02 0 0 0
351 10 8 -5.8100900000000000e-01 9.2148238343494828e+00 -3.9644393917460388e+00 1.3595009885665004e+02 0 0 0
339 10 4 3.6512000000000003e-02 3.2513933935325539e+00 -1.1183056357681640e+01 1.4213082843210159e+02 0 0 0
340 10 5 7.1070999999999995e-02 4.5548728892944013e+00 -9.0362325489846231e+00 1.4194232082784694e+02 0 0 0
341 10 5 7.1070999999999995e-02 6.0278467335326331e+00 -9.8891987839809232e+00 1.4243305191919373e+02 0 0 0
342 10 4 5.8549999999999998e-02 5.7763780713047943e+00 -1.1403137544336619e+01 1.4040845989725136e+02 0 0 0
343 10 4 5.8549999999999998e-02 4.3937649690350451e+00 -1.0391872682211332e+01 1.3987725276392999e+02 0 0 0
344 10 8 -5.8100900000000000e-01 6.1875624034217758e+00 -1.0508339162748584e+01 1.3783134464506671e+02 0 0 0
345 10 4 7.1320999999999996e-02 8.2948668428367451e+00 -1.0049713436100172e+01 1.3664951906346283e+02 0 0 0
346 10 4 7.1320999999999996e-02 9.4675474647554676e+00 -8.8279910210922239e+00 1.3719018190394698e+02 0 0 0
348 10 5 7.8834000000000001e-02 6.8002139634270176e+00 -8.0753053993120680e+00 1.3586771014524928e+02 0 0 0
349 10 4 7.1320999999999996e-02 7.7225774643323621e+00 -6.1311607421912360e+00 1.3701177383650921e+02 0 0 0
350 10 4 7.1320999999999996e-02 9.3872934355484290e+00 -6.5723098991467621e+00 1.3656052895453854e+02 0 0 0
1 1 1 -5.9077500000000005e-01 3.5248611736424467e+00 1.4170602114872999e+00 -1.6577928396225261e-01 0 0 0
2 1 2 4.0388200000000002e-01 4.2635294153241148e+00 1.4572511905560628e+00 -8.0582989310078812e-01 0 0 0
3 1 3 1.3318500000000000e-01 3.7335791243036933e+00 2.3860371867256713e+00 8.6371368605433618e-01 0 0 0
4 1 4 3.6665999999999997e-02 2.8316884951835974e+00 2.4398529616943456e+00 1.4881474283251499e+00 0 0 0
5 1 4 3.6665999999999997e-02 3.9035912141183533e+00 3.3720790776056848e+00 4.1527012987300727e-01 0 0 0
6 1 3 -1.1173300000000000e-01 4.9434010334146290e+00 1.9979039528538660e+00 1.7390186712304454e+00 0 0 0
7 1 5 7.1371000000000004e-02 5.8396579570746017e+00 1.9275821615165842e+00 1.1159441833902741e+00 0 0 0
8 1 5 7.1371000000000004e-02 4.7663875667817255e+00 1.0064371875594418e+00 2.1790248792280416e+00 0 0 0
9 1 3 1.4525700000000000e-01 5.1822237129121094e+00 3.0281199892325841e+00 2.8639788802951802e+00 0 0 0
10 1 4 5.8797000000000002e-02 4.3228505558258163e+00 3.0511345781863408e+00 3.5423916437340788e+00 0 0 0
11 1 4 5.8797000000000002e-02 5.3262261147147409e+00 4.0239547163299054e+00 2.4292541790591784e+00 0 0 0
12 1 6 -3.8907799999999998e-01 6.3650621813346291e+00 2.6483822639418673e+00 3.5999217856947077e+00 0 0 0
13 1 7 7.6621799999999995e-01 6.7940981555403965e+00 3.4527880930870296e+00 4.6110700007755243e+00 0 0 0
14 1 8 -5.7854799999999995e-01 6.2577104405826836e+00 4.4934706686311454e+00 4.9467311098257962e+00 0 0 0
15 1 6 -3.9056900000000000e-01 7.9763831684592343e+00 2.9997310782230855e+00 5.1097734684628291e+00 0 0 0
16 1 3 1.4173600000000000e-01 8.6814166600845031e+00 3.7991301251691851e+00 6.0846556588130287e+00 0 0 0
17 1 4 7.1622000000000005e-02 8.0942858330121599e+00 3.8732666331491696e+00 7.0107140915217192e+00 0 0 0
18 1 4 7.1622000000000005e-02 8.8254970550710592e+00 4.8052438306249545e+00 5.6683709359676930e+00 0 0 0
19 1 3 -1.2068000000000000e-01 1.0056413981641549e+01 3.1436412860605518e+00 6.3584104675978423e+00 0 0 0
20 1 5 7.9167000000000001e-02 1.0478657871888464e+01 2.7897331688342728e+00 5.4072063190027535e+00 0 0 0
21 1 5 7.9167000000000001e-02 9.9281754724647318e+00 2.2672977188666774e+00 7.0011556154071934e+00 0 0 0
22 1 3 1.4173600000000000e-01 1.1049696947785923e+01 4.1454870225693607e+00 6.9931962621635035e+00 0 0 0
23 1 4 7.1622000000000005e-02 1.2073102432916608e+01 3.7519144128261050e+00 6.9297253380124575e+00 0 0 0
24 1 4 7.1622000000000005e-02 1.1020976945507233e+01 5.0835723540834454e+00 6.4187909666034502e+00 0 0 0
25 1 6 -3.9056900000000000e-01 1.0696287746338392e+01 4.4422281044065937e+00 8.3662666012445062e+00 0 0 0
26 1 7 7.6621799999999995e-01 1.1297590025065531e+01 3.7645828755476138e+00 9.3774219320100620e+00 0 0 0
27 1 8 -5.7854799999999995e-01 1.2120347143467043e+01 2.8785414110337584e+00 9.2255802590471756e+00 0 0 0
28 1 6 -3.8907799999999998e-01 1.0990082526497538e+01 4.3319567951440821e+00 1.0573833429623408e+01 0 0 0
29 1 3 1.4525700000000000e-01 1.1739097093478325e+01 3.9317902272579577e+00 1.1744088232503794e+01 0 0 0
30 1 4 5.8797000000000002e-02 1.2804280608054286e+01 4.1525593457684788e+00 1.1582406953310851e+01 0 0 0
31 1 4 5.8797000000000002e-02 1.1621991363617424e+01 2.8507836998621325e+00 1.1912146841106203e+01 0 0 0
32 2 3 -1.1909300000000000e-01 1.1201035658853344e+01 4.7229651750729946e+00 1.2954892681120759e+01 0 0 0
33 2 5 5.0744999999999998e-02 1.0128762555161920e+01 4.5145185489285051e+00 1.3083201979260991e+01 0 0 0
34 2 5 5.0744999999999998e-02 1.1319900432752080e+01 5.7973871541358708e+00 1.2772303480612550e+01 0 0 0
35 2 3 -7.4581999999999996e-02 1.1939756395034710e+01 4.3637895161607414e+00 1.4256482145440682e+01 0 0 0
36 2 5 4.3163000000000000e-02 1.3006794251564951e+01 4.5739450590075581e+00 1.4136859318176935e+01 0 0 0
37 2 5 4.3163000000000000e-02 1.1832472374389488e+01 3.2900909527208757e+00 1.4447915064780860e+01 0 0 0
38 2 3 -7.8537999999999997e-02 1.1382149507779896e+01 5.1633847910527511e+00 1.5451266848892901e+01 0 0 0
39 2 5 5.9841999999999999e-02 1.0308848863433393e+01 4.9550324188800285e+00 1.5569480524560278e+01 0 0 0
40 2 5 5.9841999999999999e-02 1.1481167877686351e+01 6.2382608960004422e+00 1.5249378999259696e+01 0 0 0
41 2 3 -1.2601799999999999e-01 1.2112513608336773e+01 4.8142045265795961e+00 1.6771182845299027e+01 0 0 0
42 2 5 7.9554000000000000e-02 1.3184751231133696e+01 5.0251761964091894e+00 1.6673504222370230e+01 0 0 0
43 2 5 7.9554000000000000e-02 1.2012385769078104e+01 3.7426064724194195e+00 1.6984007363183544e+01 0 0 0
44 2 7 6.3895999999999997e-01 1.1570464745020796e+01 5.5988107538853509e+00 1.7964491810594488e+01 0 0 0
45 2 8 -5.3710899999999995e-01 1.0689662054838948e+01 6.4374663369123564e+00 1.7886073999311954e+01 0 0 0
46 2 6 -4.3908300000000000e-01 1.2204865864218162e+01 5.2640153346840872e+00 1.9121005796800407e+01 0 0 0
47 2 3 1.4091300000000001e-01 1.1800850219395945e+01 5.9363500565775968e+00 2.0329122027627495e+01 0 0 0
48 2 4 5.2766000000000000e-02 1.0730942587465666e+01 5.7477240350225554e+00 2.0511759750994443e+01 0 0 0
49 2 4 5.2766000000000000e-02 1.1961831633608268e+01 7.0191095185807750e+00 2.0221459534960672e+01 0 0 0
50 2 3 -8.4473000000000006e-02 1.2631388717915691e+01 5.3964223626685577e+00 2.1512569468423447e+01 0 0 0
51 2 5 5.7820999999999997e-02 1.3697273715207174e+01 5.5564320948961754e+00 2.1313333407659041e+01 0 0 0
52 2 5 5.7820999999999997e-02 1.2473806185673361e+01 4.3132551345906993e+00 2.1594101844110824e+01 0 0 0
53 2 3 -7.7549000000000007e-02 1.2227841506180946e+01 6.0857544890677762e+00 2.2836048706133482e+01 0 0 0
54 2 5 4.4679999999999997e-02 1.1158477187106451e+01 5.9272575302651465e+00 2.3007948451848275e+01 0 0 0
55 2 5 4.4679999999999997e-02 1.2392780807786306e+01 7.1694350469769379e+00 2.2746776048066877e+01 0 0 0
56 2 3 -7.7549000000000007e-02 1.3032617908760274e+01 5.5401329853649468e+00 2.4037271686688410e+01 0 0 0
57 2 5 6.0347999999999999e-02 1.4107071257321813e+01 5.6958316143936276e+00 2.3859650842370609e+01 0 0 0
58 2 5 6.0347999999999999e-02 1.2864870945242327e+01 4.4616859410074010e+00 2.4129932036362412e+01 0 0 0
59 2 3 -1.2601799999999999e-01 1.2615088168262663e+01 6.2384983833295724e+00 2.5351171055627848e+01 0 0 0
60 2 5 7.9554000000000000e-02 1.1541579288389491e+01 6.0973703014891196e+00 2.5524102385819166e+01 0 0 0
61 2 5 7.9554000000000000e-02 1.2794132145057489e+01 7.3192187364967918e+00 2.5273253904123806e+01 0 0 0
62 2 7 6.3794899999999999e-01 1.3374967553225030e+01 5.7167077927142689e+00 2.6565919003671912e+01 0 0 0
63 2 8 -5.3809799999999997e-01 1.4219446315883456e+01 4.8427021533843142e+00 2.6525280648641559e+01 0 0 0
64 2 6 -4.4007200000000002e-01 1.2984450432902916e+01 6.3490262007388463e+00 2.7703308004558540e+01 0 0 0
65 2 3 1.3990200000000000e-01 1.3593535094032896e+01 5.9595673152200117e+00 2.8954867709931364e+01 0 0 0
66 2 4 5.1756000000000003e-02 1.4678711238685688e+01 6.1266723420962652e+00 2.8901917819840627e+01 0 0 0
67 2 4 5.1756000000000003e-02 1.3396539789357472e+01 4.8946134721443091e+00 2.9142504994538147e+01 0 0 0
68 3 3 -1.1909300000000000e-01 1.2977838704752825e+01 6.8246163968581275e+00 3.0076093089421061e+01 0 0 0
69 3 5 5.0744999999999998e-02 1.1892062389638602e+01 6.6601499049026796e+00 3.0112203079310394e+01 0 0 0
71 3 3 -7.4581999999999996e-02 1.3576635488848938e+01 6.4814433015470332e+00 3.1456333880907646e+01 0 0 0
72 3 5 4.3163000000000000e-02 1.4667023733940733e+01 6.6383449816011133e+00 3.1436647840047126e+01 0 0 0
73 3 5 4.3163000000000000e-02 1.3405452399840765e+01 5.4238154334413995e+00 3.1677521997938431e+01 0 0 0
74 3 3 -7.8537999999999997e-02 1.2947683209626833e+01 7.3494069251864662e+00 3.2568415571850579e+01 0 0 0
75 3 5 5.9841999999999999e-02 1.1861420966728330e+01 7.1904333203703086e+00 3.2589090260319516e+01 0 0 0
77 3 3 -1.2601799999999999e-01 1.3536394347233673e+01 7.0199915417678991e+00 3.3959523804390358e+01 0 0 0
78 3 5 7.9554000000000000e-02 1.4619005828227126e+01 7.1801275087377210e+00 3.3953338973611004e+01 0 0 0
79 3 5 7.9554000000000000e-02 1.3365290563193875e+01 5.9661821367983965e+00 3.4194510091102742e+01 0 0 0
82 3 6 -4.3908300000000000e-01 1.3435613615436885e+01 7.5514744916732344e+00 3.6291425424782119e+01 0 0 0
86 3 3 -8.4473000000000006e-02 1.3637489049830563e+01 7.7548696471086114e+00 3.8703646114691992e+01 0 0 0
88 3 5 5.7820999999999997e-02 1.3425605133342499e+01 6.6868870073103306e+00 3.8813474844049985e+01 0 0 0
94 3 5 6.0347999999999999e-02 1.3586530841865114e+01 6.9179607571644919e+00 4.1360002594818582e+01 0 0 0
99 3 8 -5.3809799999999997e-01 1.4729618723600197e+01 7.3296784453578478e+00 4.3856431389202655e+01 0 0 0
103 3 4 5.1756000000000003e-02 1.3666773259425950e+01 7.5201149956620572e+00 4.6391580423053490e+01 0 0 0
202 6 8 -5.3880300000000003e-01 5.9793580852841757e+00 7.3516870114804735e+00 8.8128833976718667e+01 0 0 0
203 6 3 -1.2688199999999999e-01 6.5816787707792486e+00 7.7694142428099600e+00 9.0444083110087405e+01 0 0 0
204 6 5 7.9020000000000007e-02 7.6412973558167590e+00 7.7819971127200933e+00 9.0732919953692388e+01 0 0 0
206 6 3 -7.8080999999999998e-02 5.9601344385800594e+00 6.3974408872507826e+00 9.0795761416652567e+01 0 0 0
207 6 5 6.0947000000000001e-02 4.9054182264697381e+00 6.3878274263254919e+00 9.0492845837819999e+01 0 0 0
208 6 5 6.0947000000000001e-02 6.4690578024036736e+00 5.6070407674249996e+00 9.0222770328181596e+01 0 0 0
209 6 3 -7.8080999999999998e-02 6.0680891840953155e+00 6.0859616412536948e+00 9.2304678655146645e+01 0 0 0
210 6 5 3.9861000000000001e-02 7.1220482577772426e+00 6.0890304481584554e+00 9.2607471318377890e+01 0 0 0
211 6 5 3.9861000000000001e-02 5.5575144949002429e+00 6.8693604690751418e+00 9.2879207171440413e+01 0 0 0
212 7 3 -8.6049000000000000e-02 5.4674958718704758e+00 4.7064463157279572e+00 9.2650317869028768e+01 0 0 0
213 7 5 5.3918000000000001e-02 5.9975610384506473e+00 3.9218531864829913e+00 9.2095601779885655e+01 0 0 0
214 7 5 5.3918000000000001e-02 4.4058777504422935e+00 4.6833113369213688e+00 9.2366507875300400e+01 0 0 0
215 7 3 1.3996600000000001e-01 5.5814277894394060e+00 4.4023867177569489e+00 9.4153895184087418e+01 0 0 0
216 7 4 5.1909999999999998e-02 5.0751309682656052e+00 5.1850643845361848e+00 9.4733003011867993e+01 0 0 0
217 7 4 5.1909999999999998e-02 5.1157840313627556e+00 3.4317811516226246e+00 9.4372145665519554e+01 0 0 0
218 7 6 -4.4508399999999998e-01 6.9787454272527789e+00 4.3627742298511034e+00 9.4511046749105859e+01 0 0 0
219 7 7 6.3366500000000003e-01 7.3012011827382750e+00 4.1027407889411283e+00 9.5807092127252503e+01 0 0 0
220 7 8 -5.3979900000000003e-01 6.4902892086773196e+00 3.9025633303026499e+00 9.6695794484294566e+01 0 0 0
221 7 3 -1.2787799999999999e-01 8.8150626911709260e+00 4.1021855466098724e+00 9.6007528583230751e+01 0 0 0
222 7 5 8.0023999999999998e-02 9.2553086363869816e+00 3.3508452370590991e+00 9.5343386083003153e+01 0 0 0
223 7 5 8.0023999999999998e-02 9.2055448026973430e+00 5.0757817191157866e+00 9.5694572754908165e+01 0 0 0
224 7 3 -7.8080999999999998e-02 9.2269937585438662e+00 3.8105964322330710e+00 9.7468026895440602e+01 0 0 0
225 7 5 5.9943000000000003e-02 8.7845100255164486e+00 4.5642391655987371e+00 9.8131390774384755e+01 0 0 0
226 7 5 5.9943000000000003e-02 8.8253609279675356e+00 2.8310061952853385e+00 9.7770043787704552e+01 0 0 0
227 7 3 -7.8080999999999998e-02 1.0759871103474678e+01 3.8135591569605989e+00 9.7632424551485059e+01 0 0 0
228 7 5 4.3878000000000000e-02 1.1200956891824188e+01 3.0600431168543700e+00 9.6967583638247106e+01 0 0 0
229 7 5 4.3878000000000000e-02 1.1160121665623969e+01 4.7931882103117989e+00 9.7328863767474473e+01 0 0 0
234 7 4 5.1909999999999998e-02 1.3164390694676799e+01 2.7606836102942847e+00 9.8591289451689889e+01 0 0 0
235 7 4 5.1909999999999998e-02 1.3114793215532808e+01 4.5135482845508097e+00 9.8951474024640802e+01 0 0 0
230 7 3 -8.5053000000000004e-02 1.1181416890029592e+01 3.5234838116364831e+00 9.9092072753621878e+01 0 0 0
231 7 5 5.7933999999999999e-02 1.0750121150510015e+01 4.2820467714342012e+00 9.9763685915534737e+01 0 0 0
232 7 5 5.7933999999999999e-02 1.0789564723413683e+01 2.5484346449398796e+00 9.9404166734779309e+01 0 0 0
233 7 3 1.4097100000000001e-01 1.2717119870220204e+01 3.5303798427596131e+00 9.9237936815574344e+01 0 0 0
236 7 6 -4.4508399999999998e-01 1.3060800566262282e+01 3.2607497809512189e+00 1.0061441087696232e+02 0 0 0
237 7 7 6.3366500000000003e-01 1.4380732847840681e+01 3.2218808490400921e+00 1.0094461643517737e+02 0 0 0
238 7 8 -5.3880300000000003e-01 1.5289091244932330e+01 3.4109897213624425e+00 1.0015529729277425e+02 0 0 0
239 7 3 -1.2688199999999999e-01 1.4588057253464514e+01 2.9217976922097151e+00 1.0242379754629027e+02 0 0 0
240 7 5 7.9020000000000007e-02 1.4067546429945907e+01 3.6910241807536455e+00 1.0301047127161900e+02 0 0 0
241 7 5 7.9020000000000007e-02 1.4106818917004039e+01 1.9667744220933496e+00 1.0265086507880130e+02 0 0 0
242 7 3 -7.8080999999999998e-02 1.6081084094963312e+01 2.8779986614171946e+00 1.0282297659228678e+02 0 0 0
243 7 5 6.0947000000000001e-02 1.6593426686639507e+01 2.1086879940803520e+00 1.0222980105959077e+02 0 0 0
244 7 5 6.0947000000000001e-02 1.6543959541565624e+01 3.8427472301482233e+00 1.0258082853900302e+02 0 0 0
245 7 3 -7.8080999999999998e-02 1.6270911454564931e+01 2.5718045966014405e+00 1.0432297598415458e+02 0 0 0
246 7 5 3.9861000000000001e-02 1.5759956450737860e+01 3.3405677942676881e+00 1.0491602105160941e+02 0 0 0
247 7 5 3.9861000000000001e-02 1.5811023637943020e+01 1.6063525617668457e+00 1.0456599225098704e+02 0 0 0
248 8 3 -8.6049000000000000e-02 1.7756986921386392e+01 2.5566260372409442e+00 1.0472075434542008e+02 0 0 0
249 8 5 5.3918000000000001e-02 1.8207925761797714e+01 3.5317936703219566e+00 1.0450396078528414e+02 0 0 0
250 8 5 5.3918000000000001e-02 1.8287387665595816e+01 1.7885886907723414e+00 1.0414358452862490e+02 0 0 0
251 8 3 1.3996600000000001e-01 1.7946539518402361e+01 2.2531990979292722e+00 1.0622106418750316e+02 0 0 0
252 8 4 5.1909999999999998e-02 1.7485257330902829e+01 1.2935146932870190e+00 1.0647010632514846e+02 0 0 0
253 8 4 5.1909999999999998e-02 2.8342107201183482e+00 2.2173357378809033e+00 1.0646907048150973e+02 1 0 0
254 8 6 -4.4508399999999998e-01 1.7314829979248085e+01 3.3020106723724005e+00 1.0697921285618450e+02 0 0 0
255 8 7 6.3366500000000003e-01 1.7357546755653555e+01 3.2359446587236640e+00 1.0833636886862915e+02 0 0 0
256 8 8 -5.3979900000000003e-01 1.7895400010144542e+01 2.3401833643663164e+00 1.0896423799896584e+02 0 0 0
257 8 3 -1.2787799999999999e-01 1.6640920187449286e+01 4.4165777283422845e+00 1.0897848726197874e+02 0 0 0
258 8 5 8.0023999999999998e-02 1.7104809913021811e+01 5.3446811224493285e+00 1.0862413181674576e+02 0 0 0
259 8 5 8.0023999999999998e-02 1.5601897653196993e+01 4.4229139945957652e+00 1.0862463735158339e+02 0 0 0
260 8 3 -7.8080999999999998e-02 1.6669448496089657e+01 4.3755992032249384e+00 1.1052647942307318e+02 0 0 0
261 8 5 5.9943000000000003e-02 1.6192673173226009e+01 3.4501523276325354e+00 1.1087085695264608e+02 0 0 0
262 8 5 5.9943000000000003e-02 1.7707849348542329e+01 4.3628518045450679e+00 1.1087130379136204e+02 0 0 0
263 8 3 -7.8080999999999998e-02 1.5932205853329878e+01 5.5841802719992035e+00 1.1114096595778328e+02 0 0 0
264 8 5 4.3878000000000000e-02 1.6402857685289906e+01 6.5094542201650096e+00 1.1078977720389378e+02 0 0 0
265 8 5 4.3878000000000000e-02 1.4889748504900115e+01 5.5963011969753236e+00 1.1079028092119802e+02 0 0 0
266 8 3 -8.5053000000000004e-02 1.5958377442527354e+01 5.5487643271401392e+00 1.1268403297552615e+02 0 0 0
267 8 5 5.7933999999999999e-02 1.5480969780221088e+01 4.6242437903342495e+00 1.1303578245613429e+02 0 0 0
268 8 5 5.7933999999999999e-02 1.6995306474159847e+01 5.5457576111083799e+00 1.1303598125644648e+02 0 0 0
269 8 3 1.4097100000000001e-01 1.5221223240446376e+01 6.7692295246215277e+00 1.1327874842092621e+02 0 0 0
270 8 4 5.1909999999999998e-02 1.5700616489673878e+01 7.7004418380252257e+00 1.1294414643939811e+02 0 0 0
271 8 4 5.1909999999999998e-02 1.4176802001139441e+01 6.7692237650434617e+00 1.1294419758679796e+02 0 0 0
272 8 6 -4.4508399999999998e-01 1.5271625297650239e+01 6.6950907160050424e+00 1.1471713460103527e+02 0 0 0
273 8 7 6.3366500000000003e-01 1.4668591626054086e+01 7.6827986770832464e+00 1.1543049094551736e+02 0 0 0
275 8 3 -1.2688199999999999e-01 1.4807997317388233e+01 7.4633221335454341e+00 1.1693439691707327e+02 0 0 0
276 8 5 7.9020000000000007e-02 1.4367350548516599e+01 6.4963249977586681e+00 1.1718449720513371e+02 0 0 0
277 8 5 7.9020000000000007e-02 1.5872317396427830e+01 7.4100895754062694e+00 1.1718398533941830e+02 0 0 0
282 8 5 3.9861000000000001e-02 1.3827529488604180e+01 7.3788841770769817e+00 1.1953960971090873e+02 0 0 0
291 9 7 6.3366500000000003e-01 1.3094551672838124e+01 7.5503247675890339e+00 1.2324003942129104e+02 0 0 0
293 9 3 -1.2787799999999999e-01 1.2374564745531973e+01 6.2163587822779984e+00 1.2340998264132456e+02 0 0 0
294 9 5 8.0023999999999998e-02 1.1349859098337987e+01 6.3288439637090672e+00 1.2304736603413301e+02 0 0 0
295 9 5 8.0023999999999998e-02 1.2864720164653411e+01 5.4766748125592688e+00 1.2276720425005846e+02 0 0 0
296 9 3 -7.8080999999999998e-02 1.2363048501403204e+01 5.7145772298842399e+00 1.2487073003156476e+02 0 0 0
297 9 5 5.9943000000000003e-02 1.3396171577249579e+01 5.6067156236226428e+00 1.2522406864865927e+02 0 0 0
298 9 5 5.9943000000000003e-02 1.1871975691301309e+01 6.4595239600136676e+00 1.2550537927890234e+02 0 0 0
299 9 3 -7.8080999999999998e-02 1.1631851586709466e+01 4.3644670252116118e+00 1.2500380465018316e+02 0 0 0
300 9 5 4.3878000000000000e-02 1.0599536769236034e+01 4.4733570644402985e+00 1.2464226998450927e+02 0 0 0
301 9 5 4.3878000000000000e-02 1.2122721069317835e+01 3.6213572802435863e+00 1.2436141605555831e+02 0 0 0
306 9 4 5.1909999999999998e-02 9.8383177323621585e+00 2.6194299338114266e+00 1.2623458918998924e+02 0 0 0
307 9 4 5.1909999999999998e-02 1.1381222347210500e+01 1.7569281107353945e+00 1.2595297222629802e+02 0 0 0
302 9 3 -8.5053000000000004e-02 1.1618569071522122e+01 3.8593683450088800e+00 1.2646424964711129e+02 0 0 0
303 9 5 5.7933999999999999e-02 1.2645178846657847e+01 3.7419680956524388e+00 1.2682770085923084e+02 0 0 0
304 9 5 5.7933999999999999e-02 1.1120553975901139e+01 4.5943945833251529e+00 1.2710816829651169e+02 0 0 0
305 9 3 1.4097100000000001e-01 1.0878977543362387e+01 2.5081041903957075e+00 1.2657223882621307e+02 0 0 0
308 9 6 -4.4508399999999998e-01 1.0892220357137777e+01 2.0724789240703672e+00 1.2794850668419184e+02 0 0 0
309 9 7 6.3366500000000003e-01 1.0286289820430456e+01 8.9458072138078215e-01 1.2825642844032910e+02 0 0 0
310 9 8 -5.3880300000000003e-01 9.7278522189040544e+00 1.8406797189166113e-01 1.2743918043611640e+02 0 0 0
311 9 3 -1.2688199999999999e-01 1.0379987843549619e+01 5.8115966704869493e-01 1.2974481613581227e+02 0 0 0
312 9 5 7.9020000000000007e-02 1.1440584087153265e+01 5.4546039605277130e-01 1.3002379792167773e+02 0 0 0
313 9 5 7.9020000000000007e-02 9.9174300390734889e+00 1.3983163963771297e+00 1.3030503140305643e+02 0 0 0
314 9 3 -7.8080999999999998e-02 9.6984602524283545e+00 -7.5795722757611372e-01 1.3010761848097692e+02 0 0 0
315 9 5 6.0947000000000001e-02 8.6434086103981862e+00 -7.1849345478127447e-01 1.2981366455939067e+02 0 0 0
316 9 5 6.0947000000000001e-02 1.0158588681571205e+01 -1.5708590866209367e+00 1.2953267461505530e+02 0 0 0
317 9 3 -7.8080999999999998e-02 9.8059372893160255e+00 -1.0695081233017039e+00 1.3161654353154191e+02 0 0 0
318 9 5 3.9861000000000001e-02 1.0861008166539783e+01 -1.1181827992465454e+00 1.3190898545711224e+02 0 0 0
319 9 5 3.9861000000000001e-02 9.3367741400734818e+00 -2.5764887876802156e-01 1.3218973962815366e+02 0 0 0
352 10 4 5.8549999999999998e-02 8.6957637758984614e+00 -1.9709016786201445e+00 1.3406368756688977e+02 0 0 0
70 3 5 5.0744999999999998e-02 1.3173644534158683e+01 7.8829707460015985e+00 2.9871339623752927e+01 0 0 0
76 3 5 5.9841999999999999e-02 1.3124157789207379e+01 8.4119471748844834e+00 3.2339225507201618e+01 0 0 0
80 3 7 6.3895999999999997e-01 1.2931384475289804e+01 7.8747051124609460e+00 3.5066151665707693e+01 0 0 0
81 3 8 -5.3710899999999995e-01 1.2094454501001287e+01 8.7419510538553507e+00 3.4875860695970914e+01 0 0 0
83 3 3 1.4091300000000001e-01 1.2947038137570049e+01 8.2889197567589097e+00 3.7434518648013061e+01 0 0 0
84 3 4 5.2766000000000000e-02 1.1861385000274728e+01 8.1533135900937825e+00 3.7521217304075769e+01 0 0 0
85 3 4 5.2766000000000000e-02 1.3174249874795688e+01 9.3554898695217954e+00 3.7301390114300034e+01 0 0 0
87 3 5 5.7820999999999997e-02 1.4727334638589905e+01 7.8709105599690066e+00 3.8603157680505717e+01 0 0 0
89 3 3 -7.7549000000000007e-02 1.3149029922567388e+01 8.5128108086012713e+00 3.9956991161930027e+01 0 0 0
90 3 5 4.4679999999999997e-02 1.2061006988696118e+01 8.4129554886902849e+00 4.0036923099500733e+01 0 0 0
91 3 5 4.4679999999999997e-02 1.3374917380596349e+01 9.5844232350846159e+00 3.9846058369167139e+01 0 0 0
92 3 3 -7.7549000000000007e-02 1.3812161059937308e+01 7.9848572631028443e+00 4.1248769441772012e+01 0 0 0
93 3 5 6.0347999999999999e-02 1.4900881228300692e+01 8.0818271601174398e+00 4.1169317308838330e+01 0 0 0
95 3 3 -1.2601799999999999e-01 1.3308149583180285e+01 8.7516224987235827e+00 4.2498032275272202e+01 0 0 0
96 3 5 7.9554000000000000e-02 1.2221477133144893e+01 8.6631381220396069e+00 4.2573676214515089e+01 0 0 0
97 3 5 7.9554000000000000e-02 1.3536394869211675e+01 9.8167987112643171e+00 4.2393334393806512e+01 0 0 0
98 3 7 6.3794899999999999e-01 1.3926168640368104e+01 8.2427717143806927e+00 4.3795647586402815e+01 0 0 0
100 3 6 -4.4007200000000002e-01 1.3455308460069674e+01 8.9342215367608926e+00 4.4869630239797445e+01 0 0 0
101 3 3 1.3990200000000000e-01 1.3926922330759675e+01 8.5651450708769961e+00 4.6178828953472369e+01 0 0 0
102 3 4 5.1756000000000003e-02 1.5019044034346338e+01 8.6826445904468716e+00 4.6221691822131831e+01 0 0 0
104 4 3 -1.1909300000000000e-01 1.3256240209638452e+01 9.4943785631166637e+00 4.7213934904593714e+01 0 0 0
105 4 5 5.0744999999999998e-02 1.2163586658391225e+01 9.3858563834046880e+00 4.7151845168391603e+01 0 0 0
106 4 5 5.0744999999999998e-02 1.3514816732678877e+01 1.0537681567018323e+01 4.6991067868985589e+01 0 0 0
107 4 3 -7.4581999999999996e-02 1.3706990947921174e+01 9.1843096606741259e+00 4.8654528032268622e+01 0 0 0
108 4 5 4.3163000000000000e-02 1.4798351046635217e+01 9.2946847324220787e+00 4.8726981967683443e+01 0 0 0
109 4 5 4.3163000000000000e-02 1.3465932380118872e+01 8.1412571266563720e+00 4.8887711379408998e+01 0 0 0
110 4 3 -7.8537999999999997e-02 1.3017393010985524e+01 1.0116015541359184e+01 4.9669668477212312e+01 0 0 0
111 4 5 5.9841999999999999e-02 1.1930630763491495e+01 1.0006482786162811e+01 4.9588444511071906e+01 0 0 0
112 4 5 5.9841999999999999e-02 1.3255195936312784e+01 1.1159634897192904e+01 4.9427951029818480e+01 0 0 0
113 4 3 -1.2601799999999999e-01 1.3457970670863105e+01 9.8167848435878984e+00 5.1120162327815343e+01 0 0 0
114 4 5 7.9554000000000000e-02 1.4546954819998946e+01 9.9264320249711080e+00 5.1213003934056836e+01 0 0 0
115 4 5 7.9554000000000000e-02 1.3214646250772759e+01 8.7824507846191135e+00 5.1374235185357435e+01 0 0 0
116 4 7 6.3895999999999997e-01 1.2792142963851141e+01 1.0741111244564488e+01 5.2134199537908238e+01 0 0 0
117 4 8 -5.3710899999999995e-01 1.2023330573839734e+01 1.1639095384836979e+01 5.1834999552100868e+01 0 0 0
118 4 6 -4.3908300000000000e-01 1.3165236599006869e+01 1.0447222445786865e+01 5.3411179837796126e+01 0 0 0
119 4 3 1.4091300000000001e-01 1.2606781525563239e+01 1.1244744393959655e+01 5.4477279782178606e+01 0 0 0
120 4 4 5.2766000000000000e-02 1.1511162645560697e+01 1.1160267184379792e+01 5.4460495958498697e+01 0 0 0
121 4 4 5.2766000000000000e-02 1.2893715566180528e+01 1.2293162017602514e+01 5.4330405839211075e+01 0 0 0
122 4 3 -8.4473000000000006e-02 1.3153024831020470e+01 1.0730787277621902e+01 5.5830602357098890e+01 0 0 0
123 4 5 5.7820999999999997e-02 1.4248264491288392e+01 1.0788312690150848e+01 5.5832708998792796e+01 0 0 0
124 4 5 5.7820999999999997e-02 1.2884262000620435e+01 9.6749364078880102e+00 5.5953372312492306e+01 0 0 0
125 4 3 -7.7549000000000007e-02 1.2585249959364370e+01 1.1558645481432324e+01 5.7005125627042908e+01 0 0 0
126 4 5 4.4679999999999997e-02 1.1490340967647658e+01 1.1510035072824254e+01 5.6985699668483399e+01 0 0 0
127 4 5 4.4679999999999997e-02 1.2864478816627679e+01 1.2612645573264738e+01 5.6875641147512525e+01 0 0 0
128 4 3 -7.7549000000000007e-02 1.3093625284101915e+01 1.1050210834280522e+01 5.8368439288868018e+01 0 0 0
129 4 5 6.0347999999999999e-02 1.4188622718647089e+01 1.1098765912224865e+01 5.8389329183432238e+01 0 0 0
130 4 5 6.0347999999999999e-02 1.2814434367523202e+01 9.9958334749339617e+00 5.8489663186053974e+01 0 0 0
131 4 3 -1.2601799999999999e-01 1.2514709887095375e+01 1.1881023317182231e+01 5.9538138400080229e+01 0 0 0
132 4 5 7.9554000000000000e-02 1.1420640185846679e+01 1.1840772309219796e+01 5.9512795724239169e+01 0 0 0
133 4 5 7.9554000000000000e-02 1.2804106150603559e+01 1.2932811990030499e+01 5.9422569913056279e+01 0 0 0
134 4 7 6.3794899999999999e-01 1.2985682712585222e+01 1.1397555118719014e+01 6.0903984794244352e+01 0 0 0
135 4 8 -5.3809799999999997e-01 1.3737416705199109e+01 1.0456638366949784e+01 6.1075788137662471e+01 0 0 0
136 4 6 -4.4007200000000002e-01 1.2451716827972463e+01 1.2144407921205383e+01 6.1902078754641558e+01 0 0 0
137 4 3 1.3990200000000000e-01 1.2782943071727644e+01 1.1811810773951409e+01 6.3265368916989409e+01 0 0 0
138 4 4 5.1756000000000003e-02 1.3867635403953107e+01 1.1880279942205229e+01 6.3411350573869704e+01 0 0 0
139 4 4 5.1756000000000003e-02 1.2453896588376288e+01 1.0787728488661232e+01 6.3481960309422227e+01 0 0 0
140 5 3 -1.1909300000000000e-01 1.2064477694669533e+01 1.2811795632847423e+01 6.4195360115903867e+01 0 0 0