Untitled

353 atoms
352 bonds
656 angles
908 dihedrals
0 impropers

8 atom types
352 bond types
656 angle types
908 dihedral types

  2.8500000  18.9963000 xlo xhi
-12.0000000  17.7819000 ylo yhi
 -0.6400000 144.2935000 zlo zhi
  0.0000000   0.0000000   0.0000000 xy xz yz

Masses

1  16.0000000
2   1.0080000
3  12.0100000
4   1.0080000
5   1.0080000
6  16.0000000
7  12.0100000
8  16.0000000

Bond Coeffs

1 harmonic    3.71402964e+02    9.73000000e-01
2 harmonic    3.16694551e+02    1.42330000e+00
3 harmonic    3.30604685e+02    1.09690000e+00
4 harmonic    3.30604685e+02    1.09690000e+00
5 harmonic    3.00896272e+02    1.53750000e+00
6 harmonic    3.30604685e+02    1.09690000e+00
7 harmonic    3.30604685e+02    1.09690000e+00
8 harmonic    3.00896272e+02    1.53750000e+00
9 harmonic    3.30604685e+02    1.09690000e+00
10 harmonic    3.30604685e+02    1.09690000e+00
11 harmonic    3.08604207e+02    1.43160000e+00
12 harmonic    3.90798279e+02    1.35840000e+00
13 harmonic    6.37703155e+02    1.21830000e+00
14 harmonic    3.90798279e+02    1.35840000e+00
15 harmonic    3.08604207e+02    1.43160000e+00
16 harmonic    3.30604685e+02    1.09690000e+00
17 harmonic    3.30604685e+02    1.09690000e+00
18 harmonic    3.00896272e+02    1.53750000e+00
19 harmonic    3.30604685e+02    1.09690000e+00
20 harmonic    3.30604685e+02    1.09690000e+00
21 harmonic    3.00896272e+02    1.53750000e+00
22 harmonic    3.30604685e+02    1.09690000e+00
23 harmonic    3.30604685e+02    1.09690000e+00
24 harmonic    3.08604207e+02    1.43160000e+00
25 harmonic    3.90798279e+02    1.35840000e+00
26 harmonic    6.37703155e+02    1.21830000e+00
27 harmonic    3.90798279e+02    1.35840000e+00
28 harmonic    3.08604207e+02    1.43160000e+00
29 harmonic    3.30604685e+02    1.09690000e+00
30 harmonic    3.30604685e+02    1.09690000e+00
31 harmonic    3.00896272e+02    1.53750000e+00
32 harmonic    3.30604685e+02    1.09690000e+00
33 harmonic    3.30604685e+02    1.09690000e+00
34 harmonic    3.00896272e+02    1.53750000e+00
35 harmonic    3.30604685e+02    1.09690000e+00
36 harmonic    3.30604685e+02    1.09690000e+00
37 harmonic    3.00896272e+02    1.53750000e+00
38 harmonic    3.30604685e+02    1.09690000e+00
39 harmonic    3.30604685e+02    1.09690000e+00
40 harmonic    3.00896272e+02    1.53750000e+00
41 harmonic    3.30604685e+02    1.09690000e+00
42 harmonic    3.30604685e+02    1.09690000e+00
43 harmonic    3.13001912e+02    1.52410000e+00
44 harmonic    6.37703155e+02    1.21830000e+00
45 harmonic    3.90798279e+02    1.35840000e+00
46 harmonic    3.08604207e+02    1.43160000e+00
47 harmonic    3.30604685e+02    1.09690000e+00
48 harmonic    3.30604685e+02    1.09690000e+00
49 harmonic    3.00896272e+02    1.53750000e+00
50 harmonic    3.30604685e+02    1.09690000e+00
51 harmonic    3.30604685e+02    1.09690000e+00
52 harmonic    3.00896272e+02    1.53750000e+00
53 harmonic    3.30604685e+02    1.09690000e+00
54 harmonic    3.30604685e+02    1.09690000e+00
55 harmonic    3.00896272e+02    1.53750000e+00
56 harmonic    3.30604685e+02    1.09690000e+00
57 harmonic    3.30604685e+02    1.09690000e+00
58 harmonic    3.00896272e+02    1.53750000e+00
59 harmonic    3.30604685e+02    1.09690000e+00
60 harmonic    3.30604685e+02    1.09690000e+00
61 harmonic    3.13001912e+02    1.52410000e+00
62 harmonic    6.37703155e+02    1.21830000e+00
63 harmonic    3.90798279e+02    1.35840000e+00
64 harmonic    3.08604207e+02    1.43160000e+00
65 harmonic    3.30604685e+02    1.09690000e+00
66 harmonic    3.30604685e+02    1.09690000e+00
67 harmonic    3.00896272e+02    1.53750000e+00
68 harmonic    3.30604685e+02    1.09690000e+00
69 harmonic    3.30604685e+02    1.09690000e+00
70 harmonic    3.00896272e+02    1.53750000e+00
71 harmonic    3.30604685e+02    1.09690000e+00
72 harmonic    3.30604685e+02    1.09690000e+00
73 harmonic    3.00896272e+02    1.53750000e+00
74 harmonic    3.30604685e+02    1.09690000e+00
75 harmonic    3.30604685e+02    1.09690000e+00
76 harmonic    3.00896272e+02    1.53750000e+00
77 harmonic    3.30604685e+02    1.09690000e+00
78 harmonic    3.30604685e+02    1.09690000e+00
79 harmonic    3.13001912e+02    1.52410000e+00
80 harmonic    6.37703155e+02    1.21830000e+00
81 harmonic    3.90798279e+02    1.35840000e+00
82 harmonic    3.08604207e+02    1.43160000e+00
83 harmonic    3.30604685e+02    1.09690000e+00
84 harmonic    3.30604685e+02    1.09690000e+00
85 harmonic    3.00896272e+02    1.53750000e+00
86 harmonic    3.30604685e+02    1.09690000e+00
87 harmonic    3.30604685e+02    1.09690000e+00
88 harmonic    3.00896272e+02    1.53750000e+00
89 harmonic    3.30604685e+02    1.09690000e+00
90 harmonic    3.30604685e+02    1.09690000e+00
91 harmonic    3.00896272e+02    1.53750000e+00
92 harmonic    3.30604685e+02    1.09690000e+00
93 harmonic    3.30604685e+02    1.09690000e+00
94 harmonic    3.00896272e+02    1.53750000e+00
95 harmonic    3.30604685e+02    1.09690000e+00
96 harmonic    3.30604685e+02    1.09690000e+00
97 harmonic    3.13001912e+02    1.52410000e+00
98 harmonic    6.37703155e+02    1.21830000e+00
99 harmonic    3.90798279e+02    1.35840000e+00
100 harmonic    3.08604207e+02    1.43160000e+00
101 harmonic    3.30604685e+02    1.09690000e+00
102 harmonic    3.30604685e+02    1.09690000e+00
103 harmonic    3.00896272e+02    1.53750000e+00
104 harmonic    3.30604685e+02    1.09690000e+00
105 harmonic    3.30604685e+02    1.09690000e+00
106 harmonic    3.00896272e+02    1.53750000e+00
107 harmonic    3.30604685e+02    1.09690000e+00
108 harmonic    3.30604685e+02    1.09690000e+00
109 harmonic    3.00896272e+02    1.53750000e+00
110 harmonic    3.30604685e+02    1.09690000e+00
111 harmonic    3.30604685e+02    1.09690000e+00
112 harmonic    3.00896272e+02    1.53750000e+00
113 harmonic    3.30604685e+02    1.09690000e+00
114 harmonic    3.30604685e+02    1.09690000e+00
115 harmonic    3.13001912e+02    1.52410000e+00
116 harmonic    6.37703155e+02    1.21830000e+00
117 harmonic    3.90798279e+02    1.35840000e+00
118 harmonic    3.08604207e+02    1.43160000e+00
119 harmonic    3.30604685e+02    1.09690000e+00
120 harmonic    3.30604685e+02    1.09690000e+00
121 harmonic    3.00896272e+02    1.53750000e+00
122 harmonic    3.30604685e+02    1.09690000e+00
123 harmonic    3.30604685e+02    1.09690000e+00
124 harmonic    3.00896272e+02    1.53750000e+00
125 harmonic    3.30604685e+02    1.09690000e+00
126 harmonic    3.30604685e+02    1.09690000e+00
127 harmonic    3.00896272e+02    1.53750000e+00
128 harmonic    3.30604685e+02    1.09690000e+00
129 harmonic    3.30604685e+02    1.09690000e+00
130 harmonic    3.00896272e+02    1.53750000e+00
131 harmonic    3.30604685e+02    1.09690000e+00
132 harmonic    3.30604685e+02    1.09690000e+00
133 harmonic    3.13001912e+02    1.52410000e+00
134 harmonic    6.37703155e+02    1.21830000e+00
135 harmonic    3.90798279e+02    1.35840000e+00
136 harmonic    3.08604207e+02    1.43160000e+00
137 harmonic    3.30604685e+02    1.09690000e+00
138 harmonic    3.30604685e+02    1.09690000e+00
139 harmonic    3.00896272e+02    1.53750000e+00
140 harmonic    3.30604685e+02    1.09690000e+00
141 harmonic    3.30604685e+02    1.09690000e+00
142 harmonic    3.00896272e+02    1.53750000e+00
143 harmonic    3.30604685e+02    1.09690000e+00
144 harmonic    3.30604685e+02    1.09690000e+00
145 harmonic    3.00896272e+02    1.53750000e+00
146 harmonic    3.30604685e+02    1.09690000e+00
147 harmonic    3.30604685e+02    1.09690000e+00
148 harmonic    3.00896272e+02    1.53750000e+00
149 harmonic    3.30604685e+02    1.09690000e+00
150 harmonic    3.30604685e+02    1.09690000e+00
151 harmonic    3.13001912e+02    1.52410000e+00
152 harmonic    6.37703155e+02    1.21830000e+00
153 harmonic    3.90798279e+02    1.35840000e+00
154 harmonic    3.08604207e+02    1.43160000e+00
155 harmonic    3.30604685e+02    1.09690000e+00
156 harmonic    3.30604685e+02    1.09690000e+00
157 harmonic    3.00896272e+02    1.53750000e+00
158 harmonic    3.30604685e+02    1.09690000e+00
159 harmonic    3.30604685e+02    1.09690000e+00
160 harmonic    3.00896272e+02    1.53750000e+00
161 harmonic    3.30604685e+02    1.09690000e+00
162 harmonic    3.30604685e+02    1.09690000e+00
163 harmonic    3.00896272e+02    1.53750000e+00
164 harmonic    3.30604685e+02    1.09690000e+00
165 harmonic    3.30604685e+02    1.09690000e+00
166 harmonic    3.00896272e+02    1.53750000e+00
167 harmonic    3.30604685e+02    1.09690000e+00
168 harmonic    3.30604685e+02    1.09690000e+00
169 harmonic    3.13001912e+02    1.52410000e+00
170 harmonic    6.37703155e+02    1.21830000e+00
171 harmonic    3.90798279e+02    1.35840000e+00
172 harmonic    3.08604207e+02    1.43160000e+00
173 harmonic    3.30604685e+02    1.09690000e+00
174 harmonic    3.30604685e+02    1.09690000e+00
175 harmonic    3.00896272e+02    1.53750000e+00
176 harmonic    3.30604685e+02    1.09690000e+00
177 harmonic    3.30604685e+02    1.09690000e+00
178 harmonic    3.00896272e+02    1.53750000e+00
179 harmonic    3.30604685e+02    1.09690000e+00
180 harmonic    3.30604685e+02    1.09690000e+00
181 harmonic    3.08604207e+02    1.43160000e+00
182 harmonic    3.90798279e+02    1.35840000e+00
183 harmonic    6.37703155e+02    1.21830000e+00
184 harmonic    3.13001912e+02    1.52410000e+00
185 harmonic    3.30604685e+02    1.09690000e+00
186 harmonic    3.30604685e+02    1.09690000e+00
187 harmonic    3.00896272e+02    1.53750000e+00
188 harmonic    3.30604685e+02    1.09690000e+00
189 harmonic    3.30604685e+02    1.09690000e+00
190 harmonic    3.00896272e+02    1.53750000e+00
191 harmonic    3.30604685e+02    1.09690000e+00
192 harmonic    3.30604685e+02    1.09690000e+00
193 harmonic    3.00896272e+02    1.53750000e+00
194 harmonic    3.30604685e+02    1.09690000e+00
195 harmonic    3.30604685e+02    1.09690000e+00
196 harmonic    3.00896272e+02    1.53750000e+00
197 harmonic    3.30604685e+02    1.09690000e+00
198 harmonic    3.30604685e+02    1.09690000e+00
199 harmonic    3.08604207e+02    1.43160000e+00
200 harmonic    3.90798279e+02    1.35840000e+00
201 harmonic    6.37703155e+02    1.21830000e+00
202 harmonic    3.13001912e+02    1.52410000e+00
203 harmonic    3.30604685e+02    1.09690000e+00
204 harmonic    3.30604685e+02    1.09690000e+00
205 harmonic    3.00896272e+02    1.53750000e+00
206 harmonic    3.30604685e+02    1.09690000e+00
207 harmonic    3.30604685e+02    1.09690000e+00
208 harmonic    3.00896272e+02    1.53750000e+00
209 harmonic    3.30604685e+02    1.09690000e+00
210 harmonic    3.30604685e+02    1.09690000e+00
211 harmonic    3.00896272e+02    1.53750000e+00
212 harmonic    3.30604685e+02    1.09690000e+00
213 harmonic    3.30604685e+02    1.09690000e+00
214 harmonic    3.00896272e+02    1.53750000e+00
215 harmonic    3.30604685e+02    1.09690000e+00
216 harmonic    3.30604685e+02    1.09690000e+00
217 harmonic    3.08604207e+02    1.43160000e+00
218 harmonic    3.90798279e+02    1.35840000e+00
219 harmonic    6.37703155e+02    1.21830000e+00
220 harmonic    3.13001912e+02    1.52410000e+00
221 harmonic    3.30604685e+02    1.09690000e+00
222 harmonic    3.30604685e+02    1.09690000e+00
223 harmonic    3.00896272e+02    1.53750000e+00
224 harmonic    3.30604685e+02    1.09690000e+00
225 harmonic    3.30604685e+02    1.09690000e+00
226 harmonic    3.00896272e+02    1.53750000e+00
227 harmonic    3.30604685e+02    1.09690000e+00
228 harmonic    3.30604685e+02    1.09690000e+00
229 harmonic    3.00896272e+02    1.53750000e+00
230 harmonic    3.30604685e+02    1.09690000e+00
231 harmonic    3.30604685e+02    1.09690000e+00
232 harmonic    3.00896272e+02    1.53750000e+00
233 harmonic    3.30604685e+02    1.09690000e+00
234 harmonic    3.30604685e+02    1.09690000e+00
235 harmonic    3.08604207e+02    1.43160000e+00
236 harmonic    3.90798279e+02    1.35840000e+00
237 harmonic    6.37703155e+02    1.21830000e+00
238 harmonic    3.13001912e+02    1.52410000e+00
239 harmonic    3.30604685e+02    1.09690000e+00
240 harmonic    3.30604685e+02    1.09690000e+00
241 harmonic    3.00896272e+02    1.53750000e+00
242 harmonic    3.30604685e+02    1.09690000e+00
243 harmonic    3.30604685e+02    1.09690000e+00
244 harmonic    3.00896272e+02    1.53750000e+00
245 harmonic    3.30604685e+02    1.09690000e+00
246 harmonic    3.30604685e+02    1.09690000e+00
247 harmonic    3.00896272e+02    1.53750000e+00
248 harmonic    3.30604685e+02    1.09690000e+00
249 harmonic    3.30604685e+02    1.09690000e+00
250 harmonic    3.00896272e+02    1.53750000e+00
251 harmonic    3.30604685e+02    1.09690000e+00
252 harmonic    3.30604685e+02    1.09690000e+00
253 harmonic    3.08604207e+02    1.43160000e+00
254 harmonic    3.90798279e+02    1.35840000e+00
255 harmonic    6.37703155e+02    1.21830000e+00
256 harmonic    3.13001912e+02    1.52410000e+00
257 harmonic    3.30604685e+02    1.09690000e+00
258 harmonic    3.30604685e+02    1.09690000e+00
259 harmonic    3.00896272e+02    1.53750000e+00
260 harmonic    3.30604685e+02    1.09690000e+00
261 harmonic    3.30604685e+02    1.09690000e+00
262 harmonic    3.00896272e+02    1.53750000e+00
263 harmonic    3.30604685e+02    1.09690000e+00
264 harmonic    3.30604685e+02    1.09690000e+00
265 harmonic    3.00896272e+02    1.53750000e+00
266 harmonic    3.30604685e+02    1.09690000e+00
267 harmonic    3.30604685e+02    1.09690000e+00
268 harmonic    3.00896272e+02    1.53750000e+00
269 harmonic    3.30604685e+02    1.09690000e+00
270 harmonic    3.30604685e+02    1.09690000e+00
271 harmonic    3.08604207e+02    1.43160000e+00
272 harmonic    3.90798279e+02    1.35840000e+00
273 harmonic    6.37703155e+02    1.21830000e+00
274 harmonic    3.13001912e+02    1.52410000e+00
275 harmonic    3.30604685e+02    1.09690000e+00
276 harmonic    3.30604685e+02    1.09690000e+00
277 harmonic    3.00896272e+02    1.53750000e+00
278 harmonic    3.30604685e+02    1.09690000e+00
279 harmonic    3.30604685e+02    1.09690000e+00
280 harmonic    3.00896272e+02    1.53750000e+00
281 harmonic    3.30604685e+02    1.09690000e+00
282 harmonic    3.30604685e+02    1.09690000e+00
283 harmonic    3.00896272e+02    1.53750000e+00
284 harmonic    3.30604685e+02    1.09690000e+00
285 harmonic    3.30604685e+02    1.09690000e+00
286 harmonic    3.00896272e+02    1.53750000e+00
287 harmonic    3.30604685e+02    1.09690000e+00
288 harmonic    3.30604685e+02    1.09690000e+00
289 harmonic    3.08604207e+02    1.43160000e+00
290 harmonic    3.90798279e+02    1.35840000e+00
291 harmonic    6.37703155e+02    1.21830000e+00
292 harmonic    3.13001912e+02    1.52410000e+00
293 harmonic    3.30604685e+02    1.09690000e+00
294 harmonic    3.30604685e+02    1.09690000e+00
295 harmonic    3.00896272e+02    1.53750000e+00
296 harmonic    3.30604685e+02    1.09690000e+00
297 harmonic    3.30604685e+02    1.09690000e+00
298 harmonic    3.00896272e+02    1.53750000e+00
299 harmonic    3.30604685e+02    1.09690000e+00
300 harmonic    3.30604685e+02    1.09690000e+00
301 harmonic    3.00896272e+02    1.53750000e+00
302 harmonic    3.30604685e+02    1.09690000e+00
303 harmonic    3.30604685e+02    1.09690000e+00
304 harmonic    3.00896272e+02    1.53750000e+00
305 harmonic    3.30604685e+02    1.09690000e+00
306 harmonic    3.30604685e+02    1.09690000e+00
307 harmonic    3.08604207e+02    1.43160000e+00
308 harmonic    3.90798279e+02    1.35840000e+00
309 harmonic    6.37703155e+02    1.21830000e+00
310 harmonic    3.13001912e+02    1.52410000e+00
311 harmonic    3.30604685e+02    1.09690000e+00
312 harmonic    3.30604685e+02    1.09690000e+00
313 harmonic    3.00896272e+02    1.53750000e+00
314 harmonic    3.30604685e+02    1.09690000e+00
315 harmonic    3.30604685e+02    1.09690000e+00
316 harmonic    3.00896272e+02    1.53750000e+00
317 harmonic    3.30604685e+02    1.09690000e+00
318 harmonic    3.30604685e+02    1.09690000e+00
319 harmonic    3.00896272e+02    1.53750000e+00
320 harmonic    3.30604685e+02    1.09690000e+00
321 harmonic    3.30604685e+02    1.09690000e+00
322 harmonic    3.00896272e+02    1.53750000e+00
323 harmonic    3.08604207e+02    1.43160000e+00
324 harmonic    3.30604685e+02    1.09690000e+00
325 harmonic    3.30604685e+02    1.09690000e+00
326 harmonic    3.90798279e+02    1.35840000e+00
327 harmonic    3.90798279e+02    1.35840000e+00
328 harmonic    6.37703155e+02    1.21830000e+00
329 harmonic    3.08604207e+02    1.43160000e+00
330 harmonic    3.00896272e+02    1.53750000e+00
331 harmonic    3.30604685e+02    1.09690000e+00
332 harmonic    3.30604685e+02    1.09690000e+00
333 harmonic    3.00896272e+02    1.53750000e+00
334 harmonic    3.30604685e+02    1.09690000e+00
335 harmonic    3.30604685e+02    1.09690000e+00
336 harmonic    3.08604207e+02    1.43160000e+00
337 harmonic    3.30604685e+02    1.09690000e+00
338 harmonic    3.30604685e+02    1.09690000e+00
339 harmonic    3.90798279e+02    1.35840000e+00
340 harmonic    3.90798279e+02    1.35840000e+00
341 harmonic    6.37703155e+02    1.21830000e+00
342 harmonic    3.08604207e+02    1.43160000e+00
343 harmonic    3.00896272e+02    1.53750000e+00
344 harmonic    3.30604685e+02    1.09690000e+00
345 harmonic    3.30604685e+02    1.09690000e+00
346 harmonic    3.00896272e+02    1.53750000e+00
347 harmonic    3.30604685e+02    1.09690000e+00
348 harmonic    3.30604685e+02    1.09690000e+00
349 harmonic    3.16694551e+02    1.42330000e+00
350 harmonic    3.30604685e+02    1.09690000e+00
351 harmonic    3.30604685e+02    1.09690000e+00
352 harmonic    3.71402964e+02    9.73000000e-01

Angle Coeffs

1 harmonic    5.09297323e+01    1.10260000e+02
2 harmonic    5.09297323e+01    1.10260000e+02
3 harmonic    6.74701243e+01    1.10190000e+02
4 harmonic    4.73804971e+01    1.07260000e+02
5 harmonic    4.63396272e+01    1.09800000e+02
6 harmonic    4.63396272e+01    1.09800000e+02
7 harmonic    6.28597036e+01    1.11510000e+02
8 harmonic    3.92399618e+01    1.08460000e+02
9 harmonic    4.63898184e+01    1.09560000e+02
10 harmonic    4.63898184e+01    1.09560000e+02
11 harmonic    4.63898184e+01    1.09560000e+02
12 harmonic    4.63898184e+01    1.09560000e+02
13 harmonic    6.79995220e+01    1.07970000e+02
14 harmonic    3.94000956e+01    1.07580000e+02
15 harmonic    4.63396272e+01    1.09800000e+02
16 harmonic    4.63396272e+01    1.09800000e+02
17 harmonic    6.32803537e+01    1.15980000e+02
18 harmonic    3.92399618e+01    1.08460000e+02
19 harmonic    5.07994742e+01    1.09780000e+02
20 harmonic    5.07994742e+01    1.09780000e+02
21 harmonic    7.53202677e+01    1.23250000e+02
22 harmonic    7.56202199e+01    1.11290000e+02
23 harmonic    6.32803537e+01    1.15980000e+02
24 harmonic    7.53202677e+01    1.23250000e+02
25 harmonic    5.07994742e+01    1.09780000e+02
26 harmonic    5.07994742e+01    1.09780000e+02
27 harmonic    6.79995220e+01    1.07970000e+02
28 harmonic    4.63396272e+01    1.09800000e+02
29 harmonic    4.63396272e+01    1.09800000e+02
30 harmonic    6.28597036e+01    1.11510000e+02
31 harmonic    3.92399618e+01    1.08460000e+02
32 harmonic    4.63898184e+01    1.09560000e+02
33 harmonic    4.63898184e+01    1.09560000e+02
34 harmonic    4.63898184e+01    1.09560000e+02
35 harmonic    4.63898184e+01    1.09560000e+02
36 harmonic    6.79995220e+01    1.07970000e+02
37 harmonic    3.94000956e+01    1.07580000e+02
38 harmonic    4.63396272e+01    1.09800000e+02
39 harmonic    4.63396272e+01    1.09800000e+02
40 harmonic    6.32803537e+01    1.15980000e+02
41 harmonic    3.92399618e+01    1.08460000e+02
42 harmonic    5.07994742e+01    1.09780000e+02
43 harmonic    5.07994742e+01    1.09780000e+02
44 harmonic    7.53202677e+01    1.23250000e+02
45 harmonic    7.56202199e+01    1.11290000e+02
46 harmonic    6.32803537e+01    1.15980000e+02
47 harmonic    7.53202677e+01    1.23250000e+02
48 harmonic    5.07994742e+01    1.09780000e+02
49 harmonic    5.07994742e+01    1.09780000e+02
50 harmonic    6.79995220e+01    1.07970000e+02
51 harmonic    4.63396272e+01    1.09800000e+02
52 harmonic    4.63396272e+01    1.09800000e+02
53 harmonic    6.28597036e+01    1.11510000e+02
54 harmonic    3.92399618e+01    1.08460000e+02
55 harmonic    4.63898184e+01    1.09560000e+02
56 harmonic    4.63898184e+01    1.09560000e+02
57 harmonic    4.63396272e+01    1.09800000e+02
58 harmonic    4.63396272e+01    1.09800000e+02
59 harmonic    6.28597036e+01    1.11510000e+02
60 harmonic    3.94000956e+01    1.07580000e+02
61 harmonic    4.63396272e+01    1.09800000e+02
62 harmonic    4.63396272e+01    1.09800000e+02
63 harmonic    4.63396272e+01    1.09800000e+02
64 harmonic    4.63396272e+01    1.09800000e+02
65 harmonic    6.28597036e+01    1.11510000e+02
66 harmonic    3.94000956e+01    1.07580000e+02
67 harmonic    4.63396272e+01    1.09800000e+02
68 harmonic    4.63396272e+01    1.09800000e+02
69 harmonic    4.63396272e+01    1.09800000e+02
70 harmonic    4.63396272e+01    1.09800000e+02
71 harmonic    6.32695985e+01    1.11040000e+02
72 harmonic    3.94000956e+01    1.07580000e+02
73 harmonic    4.63396272e+01    1.09800000e+02
74 harmonic    4.63396272e+01    1.09800000e+02
75 harmonic    6.73996176e+01    1.23200000e+02
76 harmonic    6.88898184e+01    1.10720000e+02
77 harmonic    3.94000956e+01    1.07580000e+02
78 harmonic    4.69299713e+01    1.08770000e+02
79 harmonic    4.69299713e+01    1.08770000e+02
80 harmonic    6.32803537e+01    1.15980000e+02
81 harmonic    7.53202677e+01    1.23250000e+02
82 harmonic    5.07994742e+01    1.09780000e+02
83 harmonic    5.07994742e+01    1.09780000e+02
84 harmonic    6.79995220e+01    1.07970000e+02
85 harmonic    4.63396272e+01    1.09800000e+02
86 harmonic    4.63396272e+01    1.09800000e+02
87 harmonic    6.28597036e+01    1.11510000e+02
88 harmonic    3.92399618e+01    1.08460000e+02
89 harmonic    4.63898184e+01    1.09560000e+02
90 harmonic    4.63898184e+01    1.09560000e+02
91 harmonic    4.63396272e+01    1.09800000e+02
92 harmonic    4.63396272e+01    1.09800000e+02
93 harmonic    6.28597036e+01    1.11510000e+02
94 harmonic    3.94000956e+01    1.07580000e+02
95 harmonic    4.63396272e+01    1.09800000e+02
96 harmonic    4.63396272e+01    1.09800000e+02
97 harmonic    4.63396272e+01    1.09800000e+02
98 harmonic    4.63396272e+01    1.09800000e+02
99 harmonic    6.28597036e+01    1.11510000e+02
100 harmonic    3.94000956e+01    1.07580000e+02
101 harmonic    4.63396272e+01    1.09800000e+02
102 harmonic    4.63396272e+01    1.09800000e+02
103 harmonic    4.63396272e+01    1.09800000e+02
104 harmonic    4.63396272e+01    1.09800000e+02
105 harmonic    6.32695985e+01    1.11040000e+02
106 harmonic    3.94000956e+01    1.07580000e+02
107 harmonic    4.63396272e+01    1.09800000e+02
108 harmonic    4.63396272e+01    1.09800000e+02
109 harmonic    6.73996176e+01    1.23200000e+02
110 harmonic    6.88898184e+01    1.10720000e+02
111 harmonic    3.94000956e+01    1.07580000e+02
112 harmonic    4.69299713e+01    1.08770000e+02
113 harmonic    4.69299713e+01    1.08770000e+02
114 harmonic    6.32803537e+01    1.15980000e+02
115 harmonic    7.53202677e+01    1.23250000e+02
116 harmonic    5.07994742e+01    1.09780000e+02
117 harmonic    5.07994742e+01    1.09780000e+02
118 harmonic    6.79995220e+01    1.07970000e+02
119 harmonic    4.63396272e+01    1.09800000e+02
120 harmonic    4.63396272e+01    1.09800000e+02
121 harmonic    6.28597036e+01    1.11510000e+02
122 harmonic    3.92399618e+01    1.08460000e+02
123 harmonic    4.63898184e+01    1.09560000e+02
124 harmonic    4.63898184e+01    1.09560000e+02
125 harmonic    4.63396272e+01    1.09800000e+02
126 harmonic    4.63396272e+01    1.09800000e+02
127 harmonic    6.28597036e+01    1.11510000e+02
128 harmonic    3.94000956e+01    1.07580000e+02
129 harmonic    4.63396272e+01    1.09800000e+02
130 harmonic    4.63396272e+01    1.09800000e+02
131 harmonic    4.63396272e+01    1.09800000e+02
132 harmonic    4.63396272e+01    1.09800000e+02
133 harmonic    6.28597036e+01    1.11510000e+02
134 harmonic    3.94000956e+01    1.07580000e+02
135 harmonic    4.63396272e+01    1.09800000e+02
136 harmonic    4.63396272e+01    1.09800000e+02
137 harmonic    4.63396272e+01    1.09800000e+02
138 harmonic    4.63396272e+01    1.09800000e+02
139 harmonic    6.32695985e+01    1.11040000e+02
140 harmonic    3.94000956e+01    1.07580000e+02
141 harmonic    4.63396272e+01    1.09800000e+02
142 harmonic    4.63396272e+01    1.09800000e+02
143 harmonic    6.73996176e+01    1.23200000e+02
144 harmonic    6.88898184e+01    1.10720000e+02
145 harmonic    3.94000956e+01    1.07580000e+02
146 harmonic    4.69299713e+01    1.08770000e+02
147 harmonic    4.69299713e+01    1.08770000e+02
148 harmonic    6.32803537e+01    1.15980000e+02
149 harmonic    7.53202677e+01    1.23250000e+02
150 harmonic    5.07994742e+01    1.09780000e+02
151 harmonic    5.07994742e+01    1.09780000e+02
152 harmonic    6.79995220e+01    1.07970000e+02
153 harmonic    4.63396272e+01    1.09800000e+02
154 harmonic    4.63396272e+01    1.09800000e+02
155 harmonic    6.28597036e+01    1.11510000e+02
156 harmonic    3.92399618e+01    1.08460000e+02
157 harmonic    4.63898184e+01    1.09560000e+02
158 harmonic    4.63898184e+01    1.09560000e+02
159 harmonic    4.63396272e+01    1.09800000e+02
160 harmonic    4.63396272e+01    1.09800000e+02
161 harmonic    6.28597036e+01    1.11510000e+02
162 harmonic    3.94000956e+01    1.07580000e+02
163 harmonic    4.63396272e+01    1.09800000e+02
164 harmonic    4.63396272e+01    1.09800000e+02
165 harmonic    4.63396272e+01    1.09800000e+02
166 harmonic    4.63396272e+01    1.09800000e+02
167 harmonic    6.28597036e+01    1.11510000e+02
168 harmonic    3.94000956e+01    1.07580000e+02
169 harmonic    4.63396272e+01    1.09800000e+02
170 harmonic    4.63396272e+01    1.09800000e+02
171 harmonic    4.63396272e+01    1.09800000e+02
172 harmonic    4.63396272e+01    1.09800000e+02
173 harmonic    6.32695985e+01    1.11040000e+02
174 harmonic    3.94000956e+01    1.07580000e+02
175 harmonic    4.63396272e+01    1.09800000e+02
176 harmonic    4.63396272e+01    1.09800000e+02
177 harmonic    6.73996176e+01    1.23200000e+02
178 harmonic    6.88898184e+01    1.10720000e+02
179 harmonic    3.94000956e+01    1.07580000e+02
180 harmonic    4.69299713e+01    1.08770000e+02
181 harmonic    4.69299713e+01    1.08770000e+02
182 harmonic    6.32803537e+01    1.15980000e+02
183 harmonic    7.53202677e+01    1.23250000e+02
184 harmonic    5.07994742e+01    1.09780000e+02
185 harmonic    5.07994742e+01    1.09780000e+02
186 harmonic    6.79995220e+01    1.07970000e+02
187 harmonic    4.63396272e+01    1.09800000e+02
188 harmonic    4.63396272e+01    1.09800000e+02
189 harmonic    6.28597036e+01    1.11510000e+02
190 harmonic    3.92399618e+01    1.08460000e+02
191 harmonic    4.63898184e+01    1.09560000e+02
192 harmonic    4.63898184e+01    1.09560000e+02
193 harmonic    4.63396272e+01    1.09800000e+02
194 harmonic    4.63396272e+01    1.09800000e+02
195 harmonic    6.28597036e+01    1.11510000e+02
196 harmonic    3.94000956e+01    1.07580000e+02
197 harmonic    4.63396272e+01    1.09800000e+02
198 harmonic    4.63396272e+01    1.09800000e+02
199 harmonic    4.63396272e+01    1.09800000e+02
200 harmonic    4.63396272e+01    1.09800000e+02
201 harmonic    6.28597036e+01    1.11510000e+02
202 harmonic    3.94000956e+01    1.07580000e+02
203 harmonic    4.63396272e+01    1.09800000e+02
204 harmonic    4.63396272e+01    1.09800000e+02
205 harmonic    4.63396272e+01    1.09800000e+02
206 harmonic    4.63396272e+01    1.09800000e+02
207 harmonic    6.32695985e+01    1.11040000e+02
208 harmonic    3.94000956e+01    1.07580000e+02
209 harmonic    4.63396272e+01    1.09800000e+02
210 harmonic    4.63396272e+01    1.09800000e+02
211 harmonic    6.73996176e+01    1.23200000e+02
212 harmonic    6.88898184e+01    1.10720000e+02
213 harmonic    3.94000956e+01    1.07580000e+02
214 harmonic    4.69299713e+01    1.08770000e+02
215 harmonic    4.69299713e+01    1.08770000e+02
216 harmonic    6.32803537e+01    1.15980000e+02
217 harmonic    7.53202677e+01    1.23250000e+02
218 harmonic    5.07994742e+01    1.09780000e+02
219 harmonic    5.07994742e+01    1.09780000e+02
220 harmonic    6.79995220e+01    1.07970000e+02
221 harmonic    4.63396272e+01    1.09800000e+02
222 harmonic    4.63396272e+01    1.09800000e+02
223 harmonic    6.28597036e+01    1.11510000e+02
224 harmonic    3.92399618e+01    1.08460000e+02
225 harmonic    4.63898184e+01    1.09560000e+02
226 harmonic    4.63898184e+01    1.09560000e+02
227 harmonic    4.63396272e+01    1.09800000e+02
228 harmonic    4.63396272e+01    1.09800000e+02
229 harmonic    6.28597036e+01    1.11510000e+02
230 harmonic    3.94000956e+01    1.07580000e+02
231 harmonic    4.63396272e+01    1.09800000e+02
232 harmonic    4.63396272e+01    1.09800000e+02
233 harmonic    4.63396272e+01    1.09800000e+02
234 harmonic    4.63396272e+01    1.09800000e+02
235 harmonic    6.28597036e+01    1.11510000e+02
236 harmonic    3.94000956e+01    1.07580000e+02
237 harmonic    4.63396272e+01    1.09800000e+02
238 harmonic    4.63396272e+01    1.09800000e+02
239 harmonic    4.63396272e+01    1.09800000e+02
240 harmonic    4.63396272e+01    1.09800000e+02
241 harmonic    6.32695985e+01    1.11040000e+02
242 harmonic    3.94000956e+01    1.07580000e+02
243 harmonic    4.63396272e+01    1.09800000e+02
244 harmonic    4.63396272e+01    1.09800000e+02
245 harmonic    6.73996176e+01    1.23200000e+02
246 harmonic    6.88898184e+01    1.10720000e+02
247 harmonic    3.94000956e+01    1.07580000e+02
248 harmonic    4.69299713e+01    1.08770000e+02
249 harmonic    4.69299713e+01    1.08770000e+02
250 harmonic    6.32803537e+01    1.15980000e+02
251 harmonic    7.53202677e+01    1.23250000e+02
252 harmonic    5.07994742e+01    1.09780000e+02
253 harmonic    5.07994742e+01    1.09780000e+02
254 harmonic    6.79995220e+01    1.07970000e+02
255 harmonic    4.63396272e+01    1.09800000e+02
256 harmonic    4.63396272e+01    1.09800000e+02